                  Welcome to Q-Chem
     A Quantum Leap Into The Future Of Chemistry


 Q-Chem 4.3, Q-Chem, Inc., Pleasanton, CA (2015)

 Y. Shao,  Z. Gan,  E. Epifanovsky,  A. T. B. Gilbert,  M. Wormit,  
 J. Kussmann,  A. W. Lange,  A. Behn,  J. Deng,  X. Feng,  D. Ghosh,  
 M. Goldey,  P. R. Horn,  L. D. Jacobson,  I. Kaliman,  R. Z. Khaliullin,  
 T. Kus,  A. Landau,  J. Liu,  E. I. Proynov,  Y. M. Rhee,  R. M. Richard,  
 M. A. Rohrdanz,  R. P. Steele,  E. J. Sundstrom,  H. L. Woodcock III,  
 P. M. Zimmerman,  D. Zuev,  B. Albrecht,  E. Alguire,  B. Austin,  
 S. A. Baeppler,  G. J. O. Beran,  Y. A. Bernard,  E. Berquist,  
 K. Brandhorst,  K. B. Bravaya,  S. T. Brown,  D. Casanova,  C.-M. Chang,  
 Y. Chen,  S. H. Chien,  K. D. Closser,  D. L. Crittenden,  M. Diedenhofen,  
 R. A. DiStasio Jr.,  H. Do,  A. D. Dutoi,  R. G. Edgar,  P.-T. Fang,  
 S. Fatehi,  Q. Feng,  L. Fusti-Molnar,  A. Ghysels,  
 A. Golubeva-Zadorozhnaya,  J. Gomes,  A. Gunina,  M. W. D. Hanson-Heine,  
 P. H. P. Harbach,  A. W. Hauser,  E. G. Hohenstein,  Z. C. Holden,  K. Hui,  
 T.-C. Jagau,  H. Ji,  B. Kaduk,  K. Khistyaev,  Jaehoon Kim,  Jihan Kim,  
 R. A. King,  P. Klunzinger,  D. Kosenkov,  T. Kowalczyk,  C. M. Krauter,  
 K. U. Lao,  A. Laurent,  K. V. Lawler,  S. Lehtola,  S. V. Levchenko,  
 C. Y. Lin,  Y.-S. Lin,  F. Liu,  E. Livshits,  R. C. Lochan,  A. Luenser,  
 P. Manohar,  S. F. Manzer,  S.-P. Mao,  N. Mardirossian,  A. V. Marenich,  
 L. A. Martinez-Martinez,  S. A. Maurer,  N. J. Mayhall,  K. Nanda,  
 C. M. Oana,  R. Olivares-Amaya,  D. P. O'Neill,  J. A. Parkhill,  
 T. M. Perrine,  R. Peverati,  P. A. Pieniazek,  F. Plasser,  A. Prociuk,  
 D. R. Rehn,  E. Rosta,  N. J. Russ,  N. Sergueev,  S. M. Sharada,  
 S. Sharma,  D. W. Small,  A. Sodt,  T. Stauch,  T. Stein,  D. Stuck,  
 Y.-C. Su,  A. J. W. Thom,  T. Tsuchimochi,  L. Vogt,  O. Vydrov,  T. Wang,  
 M. A. Watson,  J. Wenzel,  A. White,  C. F. Williams,  V. Vanovschi,  
 S. Yeganeh,  S. R. Yost,  Z.-Q. You,  I. Y. Zhang,  X. Zhang,  Y. Zhao,  
 B. R. Brooks,  G. K. L. Chan,  D. M. Chipman,  C. J. Cramer,  
 W. A. Goddard III,  M. S. Gordon,  W. J. Hehre,  A. Klamt,  
 H. F. Schaefer III,  M. W. Schmidt,  C. D. Sherrill,  D. G. Truhlar,  
 A. Warshel,  X. Xu,  A. Aspuru-Guzik,  R. Baer,  A. T. Bell,  N. A. Besley,  
 J.-D. Chai,  A. Dreuw,  B. D. Dunietz,  T. R. Furlani,  S. R. Gwaltney,  
 C.-P. Hsu,  Y. Jung,  J. Kong,  D. S. Lambrecht,  W. Liang,  C. Ochsenfeld,  
 V. A. Rassolov,  L. V. Slipchenko,  J. E. Subotnik,  T. Van Voorhis,  
 J. M. Herbert,  A. I. Krylov,  P. M. W. Gill,  M. Head-Gordon

 Contributors to earlier versions of Q-Chem not listed above: 
 R. D. Adamson,  J. Baker,  E. F. C. Byrd,  A. K. Chakraborty,  C.-L. Cheng,  
 H. Dachsel,  R. J. Doerksen,  G. Hawkins,  A. Heyden,  S. Hirata,  
 G. Kedziora,  F. J. Keil,  C. Kelley,  P. P. Korambath,  W. Kurlancheek,  
 A. M. Lee,  M. S. Lee,  D. Liotard,  I. Lotan,  P. E. Maslen,  N. Nair,  
 D. Neuhauser,  R. Olson,  B. Peters,  J. Ritchie,  N. E. Schultz,  
 N. Shenvi,  A. C. Simmonett,  K. S. Thanthiriwatte,  Q. Wu,  W. Zhang

 Please cite Q-Chem as follows:
 Y. Shao et al., Mol. Phys. 113, 184-215 (2015)
 DOI: 10.1080/00268976.2014.952696

 Q-Chem 4.3.0 for Intel X86 EM64T Linux

 Parts of Q-Chem use Armadillo 5.200.1 (Boston Tea Smuggler).
 http://arma.sourceforge.net/

 Q-Chem begins on Mon Sep 30 16:43:58 2019  

Host: theochem
0

     Scratch files written to /tmp/qchem394009//

Checking the input file for inconsistencies... 	...done.

--------------------------------------------------------------
User input:
--------------------------------------------------------------
$molecule
0 1
c      2.14229      1.37344      0.00001
n     -0.00018      2.74722     -0.00000
c     -2.14248      1.37316     -0.00000
c     -2.14231     -1.37343      0.00000
h     -3.99562      2.24151     -0.00000
h     -3.99533     -2.24207      0.00002
n      0.00019     -2.74722     -0.00000
c      2.14249     -1.37316     -0.00000
h      3.99561     -2.24152     -0.00000
h      3.99532      2.24206      0.00000
$end

$rem
jobtype sp
cis_n_roots 3
cis_singlets true
cis_triplets false
set_iter 50
exchange pbe0 
basis sto-3g
RPA 0
MAX_SCF_CYCLES 500
xc_grid 000075000302
mem_static 4000
mem_total 16000
SYM_IGNORE TRUE
$end



--------------------------------------------------------------
 ----------------------------------------------------------------
             Standard Nuclear Orientation (Angstroms)
    I     Atom           X                Y                Z
 ----------------------------------------------------------------
    1      C       2.1422900000     1.3734400000     0.0000100000
    2      N      -0.0001800000     2.7472200000     0.0000000000
    3      C      -2.1424800000     1.3731600000     0.0000000000
    4      C      -2.1423100000    -1.3734300000     0.0000000000
    5      H      -3.9956200000     2.2415100000     0.0000000000
    6      H      -3.9953300000    -2.2420700000     0.0000200000
    7      N       0.0001900000    -2.7472200000     0.0000000000
    8      C       2.1424900000    -1.3731600000     0.0000000000
    9      H       3.9956100000    -2.2415200000     0.0000000000
   10      H       3.9953200000     2.2420600000     0.0000000000
 ----------------------------------------------------------------
 Nuclear Repulsion Energy =   108.6877807706 hartrees
 There are       21 alpha and       21 beta electrons
 Requested basis set is STO-3G
 There are 16 shells and 34 basis functions

 Total QAlloc Memory Limit  16000 MB
 Mega-Array Size      3911 MB
 MEM_STATIC part      4000 MB

                       Distance Matrix (Angstroms)
             C (  1)   N (  2)   C (  3)   C (  4)   H (  5)   H (  6)
   N (  2)  2.545083
   C (  3)  4.284770  2.545091
   C (  4)  5.089508  4.644187  2.746590
   H (  5)  6.198991  4.027317  2.046499  4.062333
   H (  6)  7.123362  6.391732  4.062381  2.046514  4.483580
   N (  7)  4.644183  5.494440  4.644197  2.545114  6.391707  4.027326
   C (  8)  2.746600  4.644197  5.089523  4.284800  7.123358  6.199019
   H (  9)  4.062355  6.391703  7.123346  6.199003  9.162822  7.990940
   H ( 10)  2.046514  4.027308  6.198998  7.123361  7.990940  9.162855
             N (  7)   C (  8)   H (  9)
   C (  8)  2.545091
   H (  9)  4.027296  2.046485
   H ( 10)  6.391712  4.062363  4.483580
 
 tim1(1): 
  1.850000000000011E-004
 tim1(2): 
  0.000000000000000E+000
 A cutoff of  1.0D-11 yielded    109 shell pairs
 There are       598 function pairs
 
 -------------------------------------------------------
 OpenMP Integral Computing Module                       
 Release: version 1.0, May 2013, Q-Chem Inc. Pittsburgh 
 -------------------------------------------------------
 Integral Job Info:
 Integral job number is                      11
 Integral operator is                         1
 short-range coefficients                     0
 long-range coefficients              100000000
 Omega coefficients                           0
 if combine SR and LR in K                    0
 Integral screening is                        0
 Integral computing path is                   2
 max size of driver memory is            800000
 size of driver memory is                 45569
 size of scratch memory is               945100
 max col of scratch BK array                289
 max len of scratch array in speh3           22
 max len of scratch index in speh4            8
 max int batch size is                      520
 min int batch size is                       52
 fixed nKL is                                52
 max L of basis functions is                  1
 order of int derivative is                   0
 number of shells is                         16
 number of basis is                          34
 number of cartesian basis is                34
 number of contracted shell pairs           109
 number of primitive shell pairs            591
 maxK2 (contraction) of shell pair            9
 max number of K2 of shell pair               1
 max number of CS2 of shell pair             20
 max number of PS2 of shell pair            120
 mem total for path MDJ                    9426
 -------------------------------------------------------
 Smallest overlap matrix eigenvalue = 7.01E-01

 Scale SEOQF with 1.000000e-01/1.000000e-01/1.000000e+00

 Standard Electronic Orientation quadrupole field applied
 Nucleus-field energy     =     0.0000000184 hartrees
 Guess from superposition of atomic densities
 Warning:  Energy on first SCF cycle will be non-variational
 A restricted hybrid HF-DFT SCF calculation will be
 performed using Pulay DIIS extrapolation
 Exchange:     0.2500 Hartree-Fock + 0.7500 PBE
 Correlation:  1.0000 PBE
 Using Euler-Maclaurin-Lebedev (75,302) quadrature formula
 SCF converges when DIIS error is below 1.0E-08
 using 4 threads for integral computing 
 -------------------------------------------------------
 OpenMP BLAS3 based DFT computing Module                
 Release: version 1.0, May 2013, Q-Chem Inc. Pittsburgh 
 -------------------------------------------------------
 ---------------------------------------
  Cycle       Energy         DIIS Error
 ---------------------------------------
    1    -257.3736466563      1.28E-02
    2    -256.4847960250      7.65E-02
    3    -256.8301630728      7.25E-02
    4    -256.5815452742      7.61E-02
    5    -256.4395054057      7.68E-02
    6    -256.4371865840      7.69E-02
    7    -256.4374344282      7.69E-02
    8    -236.8557082195      9.63E-02
    9    -251.6481336755      6.48E-02
   10    -252.7240947884      7.10E-02
   11    -253.6778628720      9.05E-02
   12    -253.3338024342      8.62E-02
   13    -253.5053542154      8.76E-02
   14    -253.0928736054      8.33E-02
   15    -253.3447860870      7.60E-02
   16    -252.8108212313      7.68E-02
   17    -253.1409438456      7.88E-02
   18    -253.1235753834      7.88E-02
   19    -253.3158355803      7.93E-02
   20    -253.6049550970      8.49E-02
   21    -253.6855008092      9.02E-02
   22    -253.9904721839      8.89E-02
   23    -257.2572473825      6.47E-02
   24    -237.0657736377      1.07E-01
   25    -251.9924573640      1.10E-01
   26    -255.0961476751      9.25E-02
   27    -256.5214106303      7.45E-02
   28    -255.8959488032      6.87E-02
   29    -255.5616556440      6.05E-02
   30    -252.9789989336      7.09E-02
   31    -252.8883632237      7.31E-02
   32    -252.8155790015      7.04E-02
   33    -252.6995683330      6.86E-02
   34    -252.7754916797      6.85E-02
   35    -255.8123099946      6.36E-02
   36    -255.9455096905      5.42E-02
   37    -257.5059556412      6.15E-02
   38    -254.2957371504      9.52E-02
   39    -254.8735449439      7.50E-02
   40    -238.7716438692      1.10E-01
   41    -247.2399434825      1.25E-01
   42    -250.5205147807      1.24E-01
   43    -255.2005227165      8.56E-02
   44    -257.2385616669      6.99E-02
   45    -252.1824838195      7.88E-02
   46    -252.6086128699      1.04E-01
   47    -255.6049910458      7.08E-02
   48    -256.6778884326      7.40E-02
   49    -256.5162342744      5.85E-02
   50    -256.4582392243      6.54E-02
   51    -257.4535365390      5.97E-02
   52    -256.4269154216      6.06E-02
   53    -256.4060672618      6.52E-02
   54    -256.4786986107      6.52E-02
   55    -256.1569041079      6.68E-02
   56    -256.0809301407      7.28E-02
   57    -255.5844182622      7.87E-02
   58    -251.4760007635      1.09E-01
   59    -255.9812204193      8.75E-02
   60    -256.6416037362      6.97E-02
   61    -257.2598407777      7.15E-02
   62    -257.6814720713      6.13E-02
   63    -256.1898226291      7.93E-02
   64    -256.2700325420      7.87E-02
   65    -254.7149115589      1.19E-01
   66    -253.0113359428      1.22E-01
   67    -253.6514600616      1.22E-01
   68    -255.7843310202      7.87E-02
   69    -257.5424084863      6.24E-02
   70    -257.2430877620      6.59E-02
   71    -251.6468906259      1.06E-01
   72    -252.6473168067      1.14E-01
   73    -256.1108735449      7.07E-02
   74    -258.1803283038      3.81E-02
   75    -256.0734500973      7.66E-02
   76    -255.7734810489      7.85E-02
   77    -253.9969306697      1.23E-01
   78    -255.3726125866      1.04E-01
   79    -255.2233626185      1.06E-01
   80    -255.4058341449      1.04E-01
   81    -256.3904004175      8.94E-02
   82    -254.4751133706      1.23E-01
   83    -254.4048326669      1.22E-01
   84    -257.2550666055      6.65E-02
   85    -255.3322173781      8.34E-02
   86    -255.5897446116      9.04E-02
   87    -255.0551689312      1.13E-01
   88    -256.2744693177      8.59E-02
   89    -245.0759123061      9.45E-02
   90    -246.5898424663      9.28E-02
   91    -255.9925989697      6.80E-02
   92    -254.9960988224      9.62E-02
   93    -256.7838248663      7.42E-02
   94    -257.4311980128      5.73E-02
   95    -257.4425485669      5.83E-02
   96    -257.3257100634      5.93E-02
   97    -256.6470431145      7.02E-02
   98    -256.2021393364      8.09E-02
   99    -256.2435818961      7.94E-02
  100    -256.4629912868      7.59E-02
  101    -257.3090292326      6.21E-02
  102    -256.7903887609      7.11E-02
  103    -256.3523073636      8.42E-02
  104    -257.1445257321      7.08E-02
  105    -244.4096156430      7.97E-02
  106    -243.5759594643      9.17E-02
  107    -250.8170013702      9.90E-02
  108    -248.9301034429      1.20E-01
  109    -249.4387480659      1.02E-01
  110    -249.6641340038      1.01E-01
  111    -248.3228844032      1.03E-01
  112    -248.5261519640      1.12E-01
  113    -249.9446997217      1.15E-01
  114    -250.8401158245      1.07E-01
  115    -248.9902310467      1.30E-01
  116    -244.2716914621      1.50E-01
  117    -245.1953818100      1.47E-01
  118    -244.4702513835      1.44E-01
  119    -244.3427194156      1.43E-01
  120    -245.4654854494      1.10E-01
  121    -227.7772512864      1.10E-01
  122    -241.8659269814      6.50E-02
  123    -237.5102036406      5.89E-02
  124    -247.4856912084      1.56E-01
  125    -247.1425549132      1.20E-01
  126    -248.8511478398      1.26E-01
  127    -246.6360858486      1.44E-01
  128    -250.0817181062      1.26E-01
  129    -248.3437514272      1.11E-01
  130    -249.3056619810      8.44E-02
  131    -249.3866285800      8.40E-02
  132    -249.9553666706      8.29E-02
  133    -249.6007405175      8.53E-02
  134    -248.0104992408      1.29E-01
  135    -248.7493079757      1.23E-01
  136    -236.0775704278      9.33E-02
  137    -252.9116724849      7.37E-02
  138    -247.9028018853      8.13E-02
  139    -237.9625881942      5.80E-02
  140    -244.8618960357      1.20E-01
  141    -250.3462870909      8.85E-02
  142    -250.4217347830      8.93E-02
  143    -250.8149683056      9.10E-02
  144    -250.6794931620      9.06E-02
  145    -251.3376632357      8.99E-02
  146    -251.3354264913      8.14E-02
  147    -250.2919272186      1.00E-01
  148    -249.0926462270      9.79E-02
  149    -249.3813164382      1.00E-01
  150    -249.7034312370      1.02E-01
  151    -248.9334148042      9.69E-02
  152    -235.2564634347      8.06E-02
  153    -244.1314709171      1.15E-01
  154    -244.9466196022      8.96E-02
  155    -227.3167559968      1.07E-01
  156    -237.9576948000      6.37E-02
  157    -244.1041045646      1.05E-01
  158    -243.8871697441      1.02E-01
  159    -244.3000519611      1.08E-01
  160    -245.1237914944      1.24E-01
  161    -244.8744485824      1.20E-01
  162    -243.7802114124      1.07E-01
  163    -245.9970476589      1.29E-01
  164    -251.5072832221      7.25E-02
  165    -249.3703458581      1.05E-01
  166    -251.7079454434      9.06E-02
  167    -250.4283580970      9.31E-02
  168    -235.5208018751      8.41E-02
  169    -250.4403335153      8.97E-02
  170    -248.3801168443      8.41E-02
  171    -252.5598433046      9.69E-02
  172    -235.2198683932      6.04E-02
  173    -242.7187882587      7.50E-02
  174    -254.6152156886      9.63E-02
  175    -249.7154456358      1.01E-01
  176    -252.7486757652      9.21E-02
  177    -255.0609039239      7.53E-02
  178    -254.9042943990      7.55E-02
  179    -253.1668063679      9.26E-02
  180    -254.7149040469      7.15E-02
  181    -257.2118231678      7.09E-02
  182    -255.2658184662      9.96E-02
  183    -253.7862371697      1.08E-01
  184    -228.3547895290      1.22E-01
  185    -244.0949541005      6.77E-02
  186    -251.2345132778      1.13E-01
  187    -251.6961089167      1.08E-01
  188    -235.8956657572      5.36E-02
  189    -235.5017224904      7.66E-02
  190    -244.7224847572      9.68E-02
  191    -244.9942002900      1.01E-01
  192    -244.4601872828      8.90E-02
  193    -247.0061632075      1.08E-01
  194    -249.3915936381      8.45E-02
  195    -249.1337700247      8.56E-02
  196    -249.2431909481      8.69E-02
  197    -253.8410535762      6.50E-02
  198    -250.1323296877      1.07E-01
  199    -249.0241814204      9.31E-02
  200    -249.0466003733      9.47E-02
  201    -236.2078347225      7.55E-02
  202    -255.3632381312      6.19E-02
  203    -252.8115515523      1.01E-01
  204    -228.9162565854      5.72E-02
  205    -243.9022526932      6.51E-02
  206    -244.0952573723      6.78E-02
  207    -244.1939934030      6.85E-02
  208    -244.1955274251      6.92E-02
  209    -244.4185223425      7.22E-02
  210    -244.5161039738      6.87E-02
  211    -244.5541811573      6.76E-02
  212    -243.9954678419      6.68E-02
  213    -243.9263658229      6.44E-02
  214    -244.1823330129      7.06E-02
  215    -242.7867238216      7.54E-02
  216    -247.8851647734      9.22E-02
  217    -229.2330742575      7.48E-02
  218    -252.2109064967      8.09E-02
  219    -251.8656228453      9.41E-02
  220    -228.6969728137      4.58E-02
  221    -235.8002149677      7.60E-02
  222    -235.8362396803      7.67E-02
  223    -235.8104104741      7.56E-02
  224    -235.7756143608      7.61E-02
  225    -235.7290016600      7.62E-02
  226    -235.6858819348      7.64E-02
  227    -235.6269031569      7.68E-02
  228    -235.6554522213      7.68E-02
  229    -235.5357415283      8.72E-02
  230    -225.5094770649      4.44E-02
  231    -228.7295615581      4.34E-02
  232    -252.2840178910      8.31E-02
  233    -251.3928313197      8.96E-02
  234    -255.7427706633      8.64E-02
  235    -256.0599854045      8.52E-02
  236    -256.3606922914      7.78E-02
  237    -253.9328192783      1.03E-01
  238    -243.5290260116      1.07E-01
  239    -236.1850839094      1.27E-01
  240    -235.9265915879      1.14E-01
  241    -235.8035724654      1.08E-01
  242    -235.8379026911      1.07E-01
  243    -235.6625974969      1.02E-01
  244    -236.0175149468      1.16E-01
  245    -235.4442455008      9.32E-02
  246    -226.8630740858      5.25E-02
  247    -229.0479358554      5.83E-02
  248    -228.3571858479      4.57E-02
  249    -229.0802522424      5.72E-02
  250    -229.1255754813      6.11E-02
  251    -229.0452376504      5.20E-02
  252    -229.1152363680      6.07E-02
  253    -228.7894782659      4.55E-02
  254    -235.8515225514      9.00E-02
  255    -235.8399971565      9.02E-02
  256    -235.8545209715      8.99E-02
  257    -235.8498580593      9.01E-02
  258    -235.7116971328      9.54E-02
  259    -235.7546049231      9.35E-02
  260    -225.4687902959      4.25E-02
  261    -228.7065953728      4.35E-02
  262    -242.5704771936      9.10E-02
  263    -242.3740061438      9.24E-02
  264    -242.4701537976      9.18E-02
  265    -242.3040817803      9.14E-02
  266    -243.3866578751      1.06E-01
  267    -243.0162425994      1.01E-01
  268    -242.4159036665      9.18E-02
  269    -243.1393509696      1.02E-01
  270    -247.1704028006      1.30E-01
  271    -250.4654654013      8.00E-02
  272    -253.1277105850      8.76E-02
  273    -242.6938976828      8.45E-02
  274    -242.6378777738      8.65E-02
  275    -243.2954782132      9.67E-02
  276    -225.6040805907      4.78E-02
  277    -228.8770390598      4.82E-02
  278    -248.4250311567      1.16E-01
  279    -245.7311377421      9.77E-02
  280    -246.7206427880      8.02E-02
  281    -247.1634003765      8.71E-02
  282    -247.4696857379      1.04E-01
  283    -243.2535569616      9.91E-02
  284    -254.5709457208      7.73E-02
  285    -252.6415378953      9.84E-02
  286    -251.9383483422      1.07E-01
  287    -253.2333017604      9.86E-02
  288    -255.4674305149      5.32E-02
  289    -246.9801221845      1.49E-01
  290    -244.0188976482      1.26E-01
  291    -243.3279334272      1.13E-01
  292    -225.9668718545      5.70E-02
  293    -229.3816073331      8.15E-02
  294    -245.2914324825      1.04E-01
  295    -245.5627614503      8.69E-02
  296    -235.8376704458      8.92E-02
  297    -236.3327238679      1.04E-01
  298    -237.5044594475      1.38E-01
  299    -242.6927894136      7.84E-02
  300    -243.3732964985      8.80E-02
  301    -243.6893866484      9.27E-02
  302    -243.7518883290      9.69E-02
  303    -243.8356359193      9.85E-02
  304    -246.7852331561      1.26E-01
  305    -247.1766727241      1.25E-01
  306    -251.4966006724      6.42E-02
  307    -246.7797622292      9.05E-02
  308    -225.7620196004      5.38E-02
  309    -234.7989960574      7.50E-02
  310    -235.4175890370      7.89E-02
  311    -229.0797946732      5.53E-02
  312    -249.3935650502      7.62E-02
  313    -252.8178124291      9.89E-02
  314    -255.9923592684      6.26E-02
  315    -252.4710744078      1.12E-01
  316    -251.9891980576      1.16E-01
  317    -253.0520911452      1.14E-01
  318    -253.0071053113      1.14E-01
  319    -253.8169774665      9.89E-02
  320    -253.9291863471      8.68E-02
  321    -252.8661897811      1.14E-01
  322    -255.0719642553      8.31E-02
  323    -254.5040867149      8.95E-02
  324    -227.5581108012      6.53E-02
  325    -247.7471442863      9.37E-02
  326    -244.5622298602      1.14E-01
  327    -230.7199172887      1.30E-01
  328    -237.2800276211      6.64E-02
  329    -253.8231870099      7.85E-02
  330    -253.3755075391      8.22E-02
  331    -253.5952424578      8.28E-02
  332    -253.4432220411      7.96E-02
  333    -253.6401858709      8.41E-02
  334    -253.3008973613      7.84E-02
  335    -253.5680645019      8.18E-02
  336    -253.1596414743      7.47E-02
  337    -254.8016869684      9.76E-02
  338    -253.2730212173      9.41E-02
  339    -251.3173366334      1.09E-01
  340    -250.8213925424      1.13E-01
  341    -247.9181103171      1.00E-01
  342    -246.0732782611      1.40E-01
  343    -252.4628031258      1.23E-01
  344    -250.2398333155      9.83E-02
  345    -251.4238683854      1.07E-01
  346    -252.9870557075      8.54E-02
  347    -252.0558574338      1.05E-01
  348    -252.4934590161      1.10E-01
  349    -251.4801071946      1.10E-01
  350    -250.9138369924      9.90E-02
  351    -253.2881229293      9.21E-02
  352    -254.2061300642      8.64E-02
  353    -243.5732715340      8.74E-02
  354    -253.2509943938      8.82E-02
  355    -255.1942517145      8.32E-02
  356    -251.0139633810      1.03E-01
  357    -256.6620111628      6.48E-02
  358    -256.0824075933      8.07E-02
  359    -253.8403176228      1.18E-01
  360    -256.0086544241      8.16E-02
  361    -255.7407147294      8.11E-02
  362    -256.5287825567      7.43E-02
  363    -255.9166436759      7.56E-02
  364    -257.8216848150      4.58E-02
  365    -257.6104542778      5.94E-02
  366    -257.4438525753      6.08E-02
  367    -256.8464250413      7.04E-02
  368    -256.5061769381      6.49E-02
  369    -251.2404665247      9.94E-02
  370    -254.6623065501      1.01E-01
  371    -257.2329441715      6.04E-02
  372    -257.9658139764      4.36E-02
  373    -257.4221102163      6.16E-02
  374    -258.2264186552      3.46E-02
  375    -258.2005940558      3.61E-02
  376    -258.2590680085      3.35E-02
  377    -258.1339870956      3.81E-02
  378    -257.9041661392      4.96E-02
  379    -257.9800005516      4.66E-02
  380    -257.9646353194      4.74E-02
  381    -258.0213384118      4.54E-02
  382    -257.9760597382      4.68E-02
  383    -258.0125906549      4.39E-02
  384    -258.1049807083      3.90E-02
  385    -258.1129149573      3.87E-02
  386    -258.2624175015      3.24E-02
  387    -258.4784681107      9.79E-03
  388    -258.4952933849      3.62E-03
  389    -258.4966593492      3.16E-03
  390    -258.4972588253      2.67E-03
  391    -258.4974946247      2.47E-03
  392    -258.4976916207      2.29E-03
  393    -258.4974400551      2.60E-03
  394    -258.4979329500      1.99E-03
  395    -258.4980406173      1.83E-03
  396    -258.4980867321      1.77E-03
  397    -258.4981234668      1.70E-03
  398    -258.4983493640      1.39E-03
  399    -258.4984657722      1.19E-03
  400    -258.4984875933      1.16E-03
  401    -258.2894469994      3.35E-02
  402    -258.4984197078      1.30E-03
  403    -258.4985128617      1.32E-03
  404    -258.4984849109      1.38E-03
  405    -258.4985190998      1.22E-03
  406    -258.4984928521      1.03E-03
  407    -258.4985268931      9.39E-04
  408    -258.4985454237      8.46E-04
  409    -258.4985473214      8.22E-04
  410    -258.4985600496      6.97E-04
  411    -258.4985677963      5.80E-04
  412    -258.4985757900      4.72E-04
  413    -258.4985835405      2.67E-04
  414    -258.4985938752      2.99E-05
  415    -258.4985923078      6.73E-05
  416    -258.4985932997      3.24E-05
  417    -258.4985929584      5.37E-05
  418    -258.4985930896      4.74E-05
  419    -258.4985930804      2.74E-05
  420    -258.4985931587      1.62E-05
  421    -258.4985931905      7.71E-07
  422    -258.4985931908      1.29E-06
  423    -258.4985931911      7.97E-07
  424    -258.4985931910      3.68E-07
  425    -258.4985931910      8.15E-08
  426    -258.4985931910      7.40E-08
  427    -258.4985931910      1.64E-08
  428    -258.4985931910      1.58E-08
  429    -258.4985931910      1.32E-08
  430    -258.4985931910      1.20E-08
  431    -258.4985931910      1.19E-08
  432    -258.4985931910      1.19E-08
  433    -258.4985931910      1.49E-08
  434    -258.4985931910      1.25E-08
  435    -258.4985931909      1.23E-08
  436    -258.4985931909      1.16E-07
  437    -258.4985931909      5.67E-08
  438    -258.4985931909      1.88E-08
  439    -258.4985931909      1.30E-08
  440    -258.4985931909      1.31E-08
  441    -258.4985931909      1.25E-08
  442    -258.4985931909      1.33E-08
  443    -258.4985931909      1.10E-08
  444    -258.4985931909      1.22E-08
  445    -258.4985931909      1.22E-08
  446    -258.4985931909      1.22E-08
  447    -258.4985931909      1.14E-08
  448    -258.4985931909      1.04E-08
  449    -258.4985931909      4.94E-08
  450    -258.4985931909      3.89E-08
  451    -258.4985931909      1.06E-08
  452    -258.4985931909      9.75E-09 Convergence criterion met
 ---------------------------------------
 SCF time:  CPU 246.73 s  wall 61.85 s
 SCF   energy in the final basis set = -258.4985931909
 Total energy in the final basis set = -258.4985931909
 Direct TDDFT/TDA calculation will be performed
 Exchange:     0.2500 Hartree-Fock + 0.7500 PBE
 Correlation:  1.0000 PBE
 Using Euler-Maclaurin-Lebedev (75,302) quadrature formula
 Singlet excitation energies requested
 CIS energy converged when residual is below 10e- 6
 ---------------------------------------------------
 Iter    Rts Conv    Rts Left    Ttl Dev     Max Dev
 ---------------------------------------------------
   1         0           3      0.018362    0.016604
   2         0           3      0.002202    0.001577
   3         0           3      0.000789    0.000448
   4         0           3      0.000471    0.000272
   5         0           3      0.000169    0.000102
   6         0           3      0.000039    0.000019
   7         1           2      0.000022    0.000013
   8         1           2      0.000009    0.000005
   9         1           2      0.000004    0.000002
  10         3           0      0.000001    0.000000    Roots Converged
 ---------------------------------------------------
 
 
 ---------------------------------------------------
         TDDFT/TDA Excitation Energies              
 ---------------------------------------------------

 Excited state   1: excitation energy (eV) =   -0.7631
    Total energy for state   1:   -258.526636755120
    Multiplicity: Singlet 
    Trans. Mom.: -0.0001 X  -0.0000 Y   0.0598 Z
    Strength   :    -0.0000669480
    D( 20) --> V(  1) amplitude =  0.9199
    D( 21) --> V(  3) amplitude =  0.2700

 Excited state   2: excitation energy (eV) =   -0.2099
    Total energy for state   2:   -258.506307012057
    Multiplicity: Singlet 
    Trans. Mom.: -0.0000 X  -0.0000 Y   0.0000 Z
    Strength   :    -0.0000000000
    D( 19) --> V(  1) amplitude =  0.9468

 Excited state   3: excitation energy (eV) =    0.1846
    Total energy for state   3:   -258.491808522864
    Multiplicity: Singlet 
    Trans. Mom.: -0.0000 X   0.0000 Y  -0.0681 Z
    Strength   :     0.0000209591
    D( 20) --> V(  1) amplitude = -0.3020
    D( 21) --> V(  3) amplitude =  0.9440
 
 ---------------------------------------------------
  Timing summary (seconds)
  CPU time         13.35s
  System time       0.00s
  Wall time         7.11s
 
 --------------------------------------------------------------
 
                    Orbital Energies (a.u.)
 --------------------------------------------------------------
 
 Alpha MOs
 -- Occupied --
-14.134 -14.134 -10.055 -10.055 -10.055 -10.055  -0.639  -0.638
 -0.514  -0.507  -0.486  -0.478  -0.191  -0.189  -0.181  -0.177
 -0.170  -0.143  -0.119  -0.106  -0.098
 -- Virtual --
 -0.068  -0.044  -0.041  -0.031  -0.025  -0.018  -0.010   0.008
  0.033   0.044   0.044   0.055   0.056
 --------------------------------------------------------------
 
          Ground-State Mulliken Net Atomic Charges

     Atom                 Charge (a.u.)
  ----------------------------------------
      1 C                     0.121004
      2 N                    -0.078319
      3 C                     0.121003
      4 C                     0.120999
      5 H                    -0.081840
      6 H                    -0.081841
      7 N                    -0.078320
      8 C                     0.120996
      9 H                    -0.081840
     10 H                    -0.081841
  ----------------------------------------
  Sum of atomic charges =     0.000000

 -----------------------------------------------------------------
                    Cartesian Multipole Moments
 -----------------------------------------------------------------
    Charge (ESU x 10^10)
                 0.0000
    Dipole Moment (Debye)
         X      -0.0000      Y       0.0001      Z      -0.0000
       Tot       0.0001
    Quadrupole Moments (Debye-Ang)
        XX     -40.1931     XY      -0.0002     YY     -41.0119
        XZ       0.0003     YZ       0.0000     ZZ     -28.7856
    Octopole Moments (Debye-Ang^2)
       XXX       0.0001    XXY      -0.0001    XYY       0.0001
       YYY      -0.0004    XXZ      -0.0001    XYZ      -0.0000
       YYZ      -0.0001    XZZ       0.0000    YZZ       0.0003
       ZZZ      -0.0002
    Hexadecapole Moments (Debye-Ang^3)
      XXXX   -1102.0108   XXXY      -0.0092   XXYY    -337.0124
      XYYY      -0.0086   YYYY    -896.5229   XXXZ       0.0006
      XXYZ       0.0002   XYYZ       0.0028   YYYZ       0.0005
      XXZZ    -142.9642   XYZZ      -0.0013   YYZZ    -122.4880
      XZZZ       0.0001   YZZZ      -0.0000   ZZZZ     -20.1643
 -----------------------------------------------------------------
Archival summary:
1\1\theochem\SP\ProcedureUnspecified\STO-3G\244\ehrmaier\MonSep3016:45:072019MonSep3016:45:072019\0\\#,ProcedureUnspecified,STO-3G,\\0,1\N\C,1,2.54508\H,2,2.04651,1,122.216\C,1,2.54509,2,114.656,3,-180,0\H,4,2.0465,1,122.217,2,-180,0\C,4,2.74659,1,122.672,2,0,0\H,6,2.04651,4,115.112,1,-180,0\N,6,2.54511,4,122.672,1,-0,0\C,8,2.54509,6,114.656,4,-0,0\H,9,2.04649,8,122.217,6,-180,0\\\@

 Total job time:  69.01s(wall), 260.24s(cpu) 
 Mon Sep 30 16:45:07 2019

        *************************************************************
        *                                                           *
        *  Thank you very much for using Q-Chem.  Have a nice day.  *
        *                                                           *
        *************************************************************


 
User input: 2 of 5 
 
                  Welcome to Q-Chem
     A Quantum Leap Into The Future Of Chemistry


 Q-Chem 4.3, Q-Chem, Inc., Pleasanton, CA (2015)

 Y. Shao,  Z. Gan,  E. Epifanovsky,  A. T. B. Gilbert,  M. Wormit,  
 J. Kussmann,  A. W. Lange,  A. Behn,  J. Deng,  X. Feng,  D. Ghosh,  
 M. Goldey,  P. R. Horn,  L. D. Jacobson,  I. Kaliman,  R. Z. Khaliullin,  
 T. Kus,  A. Landau,  J. Liu,  E. I. Proynov,  Y. M. Rhee,  R. M. Richard,  
 M. A. Rohrdanz,  R. P. Steele,  E. J. Sundstrom,  H. L. Woodcock III,  
 P. M. Zimmerman,  D. Zuev,  B. Albrecht,  E. Alguire,  B. Austin,  
 S. A. Baeppler,  G. J. O. Beran,  Y. A. Bernard,  E. Berquist,  
 K. Brandhorst,  K. B. Bravaya,  S. T. Brown,  D. Casanova,  C.-M. Chang,  
 Y. Chen,  S. H. Chien,  K. D. Closser,  D. L. Crittenden,  M. Diedenhofen,  
 R. A. DiStasio Jr.,  H. Do,  A. D. Dutoi,  R. G. Edgar,  P.-T. Fang,  
 S. Fatehi,  Q. Feng,  L. Fusti-Molnar,  A. Ghysels,  
 A. Golubeva-Zadorozhnaya,  J. Gomes,  A. Gunina,  M. W. D. Hanson-Heine,  
 P. H. P. Harbach,  A. W. Hauser,  E. G. Hohenstein,  Z. C. Holden,  K. Hui,  
 T.-C. Jagau,  H. Ji,  B. Kaduk,  K. Khistyaev,  Jaehoon Kim,  Jihan Kim,  
 R. A. King,  P. Klunzinger,  D. Kosenkov,  T. Kowalczyk,  C. M. Krauter,  
 K. U. Lao,  A. Laurent,  K. V. Lawler,  S. Lehtola,  S. V. Levchenko,  
 C. Y. Lin,  Y.-S. Lin,  F. Liu,  E. Livshits,  R. C. Lochan,  A. Luenser,  
 P. Manohar,  S. F. Manzer,  S.-P. Mao,  N. Mardirossian,  A. V. Marenich,  
 L. A. Martinez-Martinez,  S. A. Maurer,  N. J. Mayhall,  K. Nanda,  
 C. M. Oana,  R. Olivares-Amaya,  D. P. O'Neill,  J. A. Parkhill,  
 T. M. Perrine,  R. Peverati,  P. A. Pieniazek,  F. Plasser,  A. Prociuk,  
 D. R. Rehn,  E. Rosta,  N. J. Russ,  N. Sergueev,  S. M. Sharada,  
 S. Sharma,  D. W. Small,  A. Sodt,  T. Stauch,  T. Stein,  D. Stuck,  
 Y.-C. Su,  A. J. W. Thom,  T. Tsuchimochi,  L. Vogt,  O. Vydrov,  T. Wang,  
 M. A. Watson,  J. Wenzel,  A. White,  C. F. Williams,  V. Vanovschi,  
 S. Yeganeh,  S. R. Yost,  Z.-Q. You,  I. Y. Zhang,  X. Zhang,  Y. Zhao,  
 B. R. Brooks,  G. K. L. Chan,  D. M. Chipman,  C. J. Cramer,  
 W. A. Goddard III,  M. S. Gordon,  W. J. Hehre,  A. Klamt,  
 H. F. Schaefer III,  M. W. Schmidt,  C. D. Sherrill,  D. G. Truhlar,  
 A. Warshel,  X. Xu,  A. Aspuru-Guzik,  R. Baer,  A. T. Bell,  N. A. Besley,  
 J.-D. Chai,  A. Dreuw,  B. D. Dunietz,  T. R. Furlani,  S. R. Gwaltney,  
 C.-P. Hsu,  Y. Jung,  J. Kong,  D. S. Lambrecht,  W. Liang,  C. Ochsenfeld,  
 V. A. Rassolov,  L. V. Slipchenko,  J. E. Subotnik,  T. Van Voorhis,  
 J. M. Herbert,  A. I. Krylov,  P. M. W. Gill,  M. Head-Gordon

 Contributors to earlier versions of Q-Chem not listed above: 
 R. D. Adamson,  J. Baker,  E. F. C. Byrd,  A. K. Chakraborty,  C.-L. Cheng,  
 H. Dachsel,  R. J. Doerksen,  G. Hawkins,  A. Heyden,  S. Hirata,  
 G. Kedziora,  F. J. Keil,  C. Kelley,  P. P. Korambath,  W. Kurlancheek,  
 A. M. Lee,  M. S. Lee,  D. Liotard,  I. Lotan,  P. E. Maslen,  N. Nair,  
 D. Neuhauser,  R. Olson,  B. Peters,  J. Ritchie,  N. E. Schultz,  
 N. Shenvi,  A. C. Simmonett,  K. S. Thanthiriwatte,  Q. Wu,  W. Zhang

 Please cite Q-Chem as follows:
 Y. Shao et al., Mol. Phys. 113, 184-215 (2015)
 DOI: 10.1080/00268976.2014.952696

 Q-Chem 4.3.0 for Intel X86 EM64T Linux

 Parts of Q-Chem use Armadillo 5.200.1 (Boston Tea Smuggler).
 http://arma.sourceforge.net/

 Q-Chem begins on Mon Sep 30 16:45:07 2019  

Host: theochem
0

     Scratch files written to /tmp/qchem394009//

Checking the input file for inconsistencies... 	...done.

--------------------------------------------------------------
User input:
--------------------------------------------------------------
$comment
FORCE
$end

$molecule
0 1
read
$end



$rem
jobtype FORCE
set_iter 50
exchange pbe0 
basis sto-3g
RPA 0
MAX_SCF_CYCLES 500
xc_grid 000075000302
mem_static 4000
mem_total 16000
SYM_IGNORE TRUE
$end



--------------------------------------------------------------
 ----------------------------------------------------------------
             Standard Nuclear Orientation (Angstroms)
    I     Atom           X                Y                Z
 ----------------------------------------------------------------
    1      C       2.1422900000     1.3734400000     0.0000100000
    2      N      -0.0001800000     2.7472200000     0.0000000000
    3      C      -2.1424800000     1.3731600000     0.0000000000
    4      C      -2.1423100000    -1.3734300000     0.0000000000
    5      H      -3.9956200000     2.2415100000     0.0000000000
    6      H      -3.9953300000    -2.2420700000     0.0000200000
    7      N       0.0001900000    -2.7472200000     0.0000000000
    8      C       2.1424900000    -1.3731600000     0.0000000000
    9      H       3.9956100000    -2.2415200000     0.0000000000
   10      H       3.9953200000     2.2420600000     0.0000000000
 ----------------------------------------------------------------
 Nuclear Repulsion Energy =   108.6877807706 hartrees
 There are       21 alpha and       21 beta electrons
 Requested basis set is STO-3G
 There are 16 shells and 34 basis functions

 Total QAlloc Memory Limit  16000 MB
 Mega-Array Size      3911 MB
 MEM_STATIC part      4000 MB

                       Distance Matrix (Angstroms)
             C (  1)   N (  2)   C (  3)   C (  4)   H (  5)   H (  6)
   N (  2)  2.545083
   C (  3)  4.284770  2.545091
   C (  4)  5.089508  4.644187  2.746590
   H (  5)  6.198991  4.027317  2.046499  4.062333
   H (  6)  7.123362  6.391732  4.062381  2.046514  4.483580
   N (  7)  4.644183  5.494440  4.644197  2.545114  6.391707  4.027326
   C (  8)  2.746600  4.644197  5.089523  4.284800  7.123358  6.199019
   H (  9)  4.062355  6.391703  7.123346  6.199003  9.162822  7.990940
   H ( 10)  2.046514  4.027308  6.198998  7.123361  7.990940  9.162855
             N (  7)   C (  8)   H (  9)
   C (  8)  2.545091
   H (  9)  4.027296  2.046485
   H ( 10)  6.391712  4.062363  4.483580
 
 tim1(1): 
  1.869999999999997E-004
 tim1(2): 
  0.000000000000000E+000
 A cutoff of  1.0D-11 yielded    109 shell pairs
 There are       598 function pairs
 
 -------------------------------------------------------
 OpenMP Integral Computing Module                       
 Release: version 1.0, May 2013, Q-Chem Inc. Pittsburgh 
 -------------------------------------------------------
 Integral Job Info:
 Integral job number is                      11
 Integral operator is                         1
 short-range coefficients                     0
 long-range coefficients              100000000
 Omega coefficients                           0
 if combine SR and LR in K                    0
 Integral screening is                        0
 Integral computing path is                   2
 max size of driver memory is            800000
 size of driver memory is                 45569
 size of scratch memory is               945100
 max col of scratch BK array                289
 max len of scratch array in speh3           22
 max len of scratch index in speh4            8
 max int batch size is                      520
 min int batch size is                       52
 fixed nKL is                                52
 max L of basis functions is                  1
 order of int derivative is                   0
 number of shells is                         16
 number of basis is                          34
 number of cartesian basis is                34
 number of contracted shell pairs           109
 number of primitive shell pairs            591
 maxK2 (contraction) of shell pair            9
 max number of K2 of shell pair               1
 max number of CS2 of shell pair             20
 max number of PS2 of shell pair            120
 mem total for path MDJ                    9426
 -------------------------------------------------------
 Smallest overlap matrix eigenvalue = 7.01E-01

 Scale SEOQF with 1.000000e-01/1.000000e-01/1.000000e+00

 Standard Electronic Orientation quadrupole field applied
 Nucleus-field energy     =     0.0000000184 hartrees
 Guess from superposition of atomic densities
 Warning:  Energy on first SCF cycle will be non-variational
 A restricted hybrid HF-DFT SCF calculation will be
 performed using Pulay DIIS extrapolation
 Exchange:     0.2500 Hartree-Fock + 0.7500 PBE
 Correlation:  1.0000 PBE
 Using Euler-Maclaurin-Lebedev (75,302) quadrature formula
 SCF converges when DIIS error is below 1.0E-08
 using 4 threads for integral computing 
 -------------------------------------------------------
 OpenMP BLAS3 based DFT computing Module                
 Release: version 1.0, May 2013, Q-Chem Inc. Pittsburgh 
 -------------------------------------------------------
 ---------------------------------------
  Cycle       Energy         DIIS Error
 ---------------------------------------
    1    -257.3736466563      1.28E-02
    2    -256.4847960250      7.65E-02
    3    -256.8301630728      7.25E-02
    4    -256.5815452742      7.61E-02
    5    -256.4395054057      7.68E-02
    6    -256.4371865840      7.69E-02
    7    -256.4374344282      7.69E-02
    8    -236.8557082195      9.63E-02
    9    -251.6481336749      6.48E-02
   10    -252.7240947881      7.10E-02
   11    -253.6778628767      9.05E-02
   12    -253.3338024341      8.62E-02
   13    -253.5053542202      8.76E-02
   14    -253.0928735994      8.33E-02
   15    -253.3447860969      7.60E-02
   16    -252.8108212358      7.68E-02
   17    -253.1409438688      7.88E-02
   18    -253.1235753576      7.88E-02
   19    -253.3158355785      7.93E-02
   20    -253.6049550734      8.49E-02
   21    -253.6855005310      9.02E-02
   22    -253.9904723024      8.89E-02
   23    -257.2572473860      6.47E-02
   24    -237.0657736013      1.07E-01
   25    -251.9924559991      1.10E-01
   26    -255.0961497140      9.25E-02
   27    -256.5214057644      7.45E-02
   28    -255.8959473420      6.87E-02
   29    -255.5616530554      6.05E-02
   30    -252.9789968312      7.09E-02
   31    -252.8883639176      7.31E-02
   32    -252.8155795080      7.04E-02
   33    -252.6995668618      6.86E-02
   34    -252.7754967807      6.85E-02
   35    -255.8123002767      6.36E-02
   36    -255.9455131973      5.42E-02
   37    -257.5062265618      6.15E-02
   38    -254.2949118593      9.52E-02
   39    -254.8734661012      7.50E-02
   40    -238.7806970179      1.10E-01
   41    -247.2390619662      1.25E-01
   42    -250.4933050729      1.24E-01
   43    -255.2174816722      8.55E-02
   44    -257.1847222369      7.13E-02
   45    -252.1847302198      7.86E-02
   46    -252.5673563887      1.04E-01
   47    -255.6076925115      7.08E-02
   48    -256.7336079231      7.26E-02
   49    -256.4923273669      5.84E-02
   50    -256.3940616765      6.58E-02
   51    -257.4239204263      6.01E-02
   52    -256.3698716285      6.13E-02
   53    -256.3118786324      6.75E-02
   54    -256.2720374672      6.97E-02
   55    -256.4913953280      6.55E-02
   56    -258.3568399641      2.63E-02
   57    -253.8753099289      9.25E-02
   58    -254.9565580336      7.57E-02
   59    -255.3736408765      7.84E-02
   60    -257.4280107044      6.49E-02
   61    -257.8685306503      5.50E-02
   62    -255.7105815965      7.93E-02
   63    -255.9143149961      7.95E-02
   64    -255.7982089191      8.02E-02
   65    -255.7218846089      8.06E-02
   66    -258.2022981988      3.35E-02
   67    -258.1573776955      3.76E-02
   68    -258.4506184585      1.60E-02
   69    -258.2167797200      3.37E-02
   70    -258.4193377516      1.96E-02
   71    -258.4804234373      1.33E-02
   72    -258.5110763639      7.88E-03
   73    -258.4985925532      1.06E-02
   74    -258.5116371181      8.01E-03
   75    -258.5294156575      1.65E-03
   76    -258.5301138267      6.17E-04
   77    -258.5301977674      2.91E-04
   78    -258.5302262868      6.88E-05
   79    -258.5302283135      6.98E-05
   80    -258.5302299509      4.24E-05
   81    -258.5302310155      1.40E-05
   82    -258.5302311228      5.83E-06
   83    -258.5302311581      3.45E-06
   84    -258.5302311736      2.98E-06
   85    -258.5302311836      1.09E-06
   86    -258.5302311846      3.37E-07
   87    -258.5302311847      1.17E-07
   88    -258.5302311847      5.12E-08
   89    -258.5302311847      2.04E-08
   90    -258.5302311848      1.68E-08
   91    -258.5302311848      1.89E-08
   92    -258.5302311848      1.54E-08
   93    -258.5302311848      7.36E-09 Convergence criterion met
 ---------------------------------------
 SCF time:  CPU 50.52 s  wall 12.66 s
 SCF   energy in the final basis set = -258.5302311848
 Total energy in the final basis set = -258.5302311848
 
 --------------------------------------------------------------
 
                    Orbital Energies (a.u.)
 --------------------------------------------------------------
 
 Alpha MOs
 -- Occupied --
-14.126 -14.126 -10.053 -10.053 -10.052 -10.052  -0.629  -0.628
 -0.513  -0.506  -0.484  -0.476  -0.192  -0.191  -0.182  -0.176
 -0.168  -0.130  -0.118  -0.116  -0.112
 -- Virtual --
 -0.048  -0.039  -0.031  -0.023  -0.019  -0.017  -0.006   0.013
  0.037   0.043   0.044   0.053   0.056
 --------------------------------------------------------------
 
          Ground-State Mulliken Net Atomic Charges

     Atom                 Charge (a.u.)
  ----------------------------------------
      1 C                     0.107731
      2 N                    -0.077982
      3 C                     0.107730
      4 C                     0.107733
      5 H                    -0.068739
      6 H                    -0.068741
      7 N                    -0.077981
      8 C                     0.107730
      9 H                    -0.068740
     10 H                    -0.068742
  ----------------------------------------
  Sum of atomic charges =     0.000000

 -----------------------------------------------------------------
                    Cartesian Multipole Moments
 -----------------------------------------------------------------
    Charge (ESU x 10^10)
                 0.0000
    Dipole Moment (Debye)
         X      -0.0000      Y      -0.0000      Z       0.0000
       Tot       0.0000
    Quadrupole Moments (Debye-Ang)
        XX     -36.2243     XY      -0.0001     YY     -38.2296
        XZ       0.0000     YZ      -0.0000     ZZ     -30.8362
    Octopole Moments (Debye-Ang^2)
       XXX      -0.0003    XXY      -0.0002    XYY       0.0003
       YYY      -0.0003    XXZ      -0.0001    XYZ      -0.0000
       YYZ      -0.0001    XZZ      -0.0000    YZZ      -0.0000
       ZZZ      -0.0002
    Hexadecapole Moments (Debye-Ang^3)
      XXXX   -1032.6614   XXXY      -0.0094   XXYY    -312.7105
      XYYY      -0.0112   YYYY    -780.9391   XXXZ       0.0002
      XXYZ       0.0002   XYYZ       0.0001   YYYZ      -0.0007
      XXZZ    -141.1681   XYZZ       0.0000   YYZZ    -139.6024
      XZZZ      -0.0000   YZZZ      -0.0001   ZZZZ     -21.9141
 -----------------------------------------------------------------
 Calculating analytic gradient of the SCF energy
 Gradient of SCF Energy
            1           2           3           4           5           6
    1  -0.0253987  -0.0000061   0.0254065   0.0254018  -0.0824085  -0.0824021
    2  -0.0340240   0.0608891  -0.0340168   0.0340213   0.0354834  -0.0354963
    3   0.0000005  -0.0000001  -0.0000002  -0.0000006   0.0000001   0.0000008
            7           8           9          10
    1   0.0000004  -0.0254050   0.0824091   0.0824026
    2  -0.0608876   0.0340208  -0.0354843   0.0354944
    3  -0.0000001   0.0000001  -0.0000001  -0.0000003
 Max gradient component =       8.241E-02
 RMS gradient           =       3.951E-02
 Gradient time:  CPU 1.16 s  wall 0.29 s
Archival summary:
1\1\theochem\JobtypUnspecified\ProcedureUnspecified\STO-3G\244\ehrmaier\MonSep3016:45:202019MonSep3016:45:202019\0\\#,JobtypUnspecified,ProcedureUnspecified,STO-3G,\\0,1\N\C,1,2.54508\H,2,2.04651,1,122.216\C,1,2.54509,2,114.656,3,-180,0\H,4,2.0465,1,122.217,2,-180,0\C,4,2.74659,1,122.672,2,0,0\H,6,2.04651,4,115.112,1,-180,0\N,6,2.54511,4,122.672,1,-0,0\C,8,2.54509,6,114.656,4,-0,0\H,9,2.04649,8,122.217,6,-180,0\\\@

 Total job time:  13.00s(wall), 51.85s(cpu) 
 Mon Sep 30 16:45:20 2019

        *************************************************************
        *                                                           *
        *  Thank you very much for using Q-Chem.  Have a nice day.  *
        *                                                           *
        *************************************************************


 
User input: 3 of 5 
 
                  Welcome to Q-Chem
     A Quantum Leap Into The Future Of Chemistry


 Q-Chem 4.3, Q-Chem, Inc., Pleasanton, CA (2015)

 Y. Shao,  Z. Gan,  E. Epifanovsky,  A. T. B. Gilbert,  M. Wormit,  
 J. Kussmann,  A. W. Lange,  A. Behn,  J. Deng,  X. Feng,  D. Ghosh,  
 M. Goldey,  P. R. Horn,  L. D. Jacobson,  I. Kaliman,  R. Z. Khaliullin,  
 T. Kus,  A. Landau,  J. Liu,  E. I. Proynov,  Y. M. Rhee,  R. M. Richard,  
 M. A. Rohrdanz,  R. P. Steele,  E. J. Sundstrom,  H. L. Woodcock III,  
 P. M. Zimmerman,  D. Zuev,  B. Albrecht,  E. Alguire,  B. Austin,  
 S. A. Baeppler,  G. J. O. Beran,  Y. A. Bernard,  E. Berquist,  
 K. Brandhorst,  K. B. Bravaya,  S. T. Brown,  D. Casanova,  C.-M. Chang,  
 Y. Chen,  S. H. Chien,  K. D. Closser,  D. L. Crittenden,  M. Diedenhofen,  
 R. A. DiStasio Jr.,  H. Do,  A. D. Dutoi,  R. G. Edgar,  P.-T. Fang,  
 S. Fatehi,  Q. Feng,  L. Fusti-Molnar,  A. Ghysels,  
 A. Golubeva-Zadorozhnaya,  J. Gomes,  A. Gunina,  M. W. D. Hanson-Heine,  
 P. H. P. Harbach,  A. W. Hauser,  E. G. Hohenstein,  Z. C. Holden,  K. Hui,  
 T.-C. Jagau,  H. Ji,  B. Kaduk,  K. Khistyaev,  Jaehoon Kim,  Jihan Kim,  
 R. A. King,  P. Klunzinger,  D. Kosenkov,  T. Kowalczyk,  C. M. Krauter,  
 K. U. Lao,  A. Laurent,  K. V. Lawler,  S. Lehtola,  S. V. Levchenko,  
 C. Y. Lin,  Y.-S. Lin,  F. Liu,  E. Livshits,  R. C. Lochan,  A. Luenser,  
 P. Manohar,  S. F. Manzer,  S.-P. Mao,  N. Mardirossian,  A. V. Marenich,  
 L. A. Martinez-Martinez,  S. A. Maurer,  N. J. Mayhall,  K. Nanda,  
 C. M. Oana,  R. Olivares-Amaya,  D. P. O'Neill,  J. A. Parkhill,  
 T. M. Perrine,  R. Peverati,  P. A. Pieniazek,  F. Plasser,  A. Prociuk,  
 D. R. Rehn,  E. Rosta,  N. J. Russ,  N. Sergueev,  S. M. Sharada,  
 S. Sharma,  D. W. Small,  A. Sodt,  T. Stauch,  T. Stein,  D. Stuck,  
 Y.-C. Su,  A. J. W. Thom,  T. Tsuchimochi,  L. Vogt,  O. Vydrov,  T. Wang,  
 M. A. Watson,  J. Wenzel,  A. White,  C. F. Williams,  V. Vanovschi,  
 S. Yeganeh,  S. R. Yost,  Z.-Q. You,  I. Y. Zhang,  X. Zhang,  Y. Zhao,  
 B. R. Brooks,  G. K. L. Chan,  D. M. Chipman,  C. J. Cramer,  
 W. A. Goddard III,  M. S. Gordon,  W. J. Hehre,  A. Klamt,  
 H. F. Schaefer III,  M. W. Schmidt,  C. D. Sherrill,  D. G. Truhlar,  
 A. Warshel,  X. Xu,  A. Aspuru-Guzik,  R. Baer,  A. T. Bell,  N. A. Besley,  
 J.-D. Chai,  A. Dreuw,  B. D. Dunietz,  T. R. Furlani,  S. R. Gwaltney,  
 C.-P. Hsu,  Y. Jung,  J. Kong,  D. S. Lambrecht,  W. Liang,  C. Ochsenfeld,  
 V. A. Rassolov,  L. V. Slipchenko,  J. E. Subotnik,  T. Van Voorhis,  
 J. M. Herbert,  A. I. Krylov,  P. M. W. Gill,  M. Head-Gordon

 Contributors to earlier versions of Q-Chem not listed above: 
 R. D. Adamson,  J. Baker,  E. F. C. Byrd,  A. K. Chakraborty,  C.-L. Cheng,  
 H. Dachsel,  R. J. Doerksen,  G. Hawkins,  A. Heyden,  S. Hirata,  
 G. Kedziora,  F. J. Keil,  C. Kelley,  P. P. Korambath,  W. Kurlancheek,  
 A. M. Lee,  M. S. Lee,  D. Liotard,  I. Lotan,  P. E. Maslen,  N. Nair,  
 D. Neuhauser,  R. Olson,  B. Peters,  J. Ritchie,  N. E. Schultz,  
 N. Shenvi,  A. C. Simmonett,  K. S. Thanthiriwatte,  Q. Wu,  W. Zhang

 Please cite Q-Chem as follows:
 Y. Shao et al., Mol. Phys. 113, 184-215 (2015)
 DOI: 10.1080/00268976.2014.952696

 Q-Chem 4.3.0 for Intel X86 EM64T Linux

 Parts of Q-Chem use Armadillo 5.200.1 (Boston Tea Smuggler).
 http://arma.sourceforge.net/

 Q-Chem begins on Mon Sep 30 16:45:20 2019  

Host: theochem
0

     Scratch files written to /tmp/qchem394009//

Checking the input file for inconsistencies... 	...done.

--------------------------------------------------------------
User input:
--------------------------------------------------------------
$molecule
0 1
read
$end



$rem
jobtype FORCE
cis_n_roots 3
cis_triplets false
set_iter 50
CIS_STATE_DERIV 1
exchange pbe0 
basis sto-3g
RPA 0
scf_guess read
xc_grid 000075000302
MAX_SCF_CYCLES 500
mem_static 4000
mem_total 16000
SYM_IGNORE TRUE
$end


--------------------------------------------------------------
 ----------------------------------------------------------------
             Standard Nuclear Orientation (Angstroms)
    I     Atom           X                Y                Z
 ----------------------------------------------------------------
    1      C       2.1422900000     1.3734400000     0.0000100000
    2      N      -0.0001800000     2.7472200000     0.0000000000
    3      C      -2.1424800000     1.3731600000     0.0000000000
    4      C      -2.1423100000    -1.3734300000     0.0000000000
    5      H      -3.9956200000     2.2415100000     0.0000000000
    6      H      -3.9953300000    -2.2420700000     0.0000200000
    7      N       0.0001900000    -2.7472200000     0.0000000000
    8      C       2.1424900000    -1.3731600000     0.0000000000
    9      H       3.9956100000    -2.2415200000     0.0000000000
   10      H       3.9953200000     2.2420600000     0.0000000000
 ----------------------------------------------------------------
 Nuclear Repulsion Energy =   108.6877807706 hartrees
 There are       21 alpha and       21 beta electrons
 Requested basis set is STO-3G
 There are 16 shells and 34 basis functions

 Total QAlloc Memory Limit  16000 MB
 Mega-Array Size      3911 MB
 MEM_STATIC part      4000 MB

                       Distance Matrix (Angstroms)
             C (  1)   N (  2)   C (  3)   C (  4)   H (  5)   H (  6)
   N (  2)  2.545083
   C (  3)  4.284770  2.545091
   C (  4)  5.089508  4.644187  2.746590
   H (  5)  6.198991  4.027317  2.046499  4.062333
   H (  6)  7.123362  6.391732  4.062381  2.046514  4.483580
   N (  7)  4.644183  5.494440  4.644197  2.545114  6.391707  4.027326
   C (  8)  2.746600  4.644197  5.089523  4.284800  7.123358  6.199019
   H (  9)  4.062355  6.391703  7.123346  6.199003  9.162822  7.990940
   H ( 10)  2.046514  4.027308  6.198998  7.123361  7.990940  9.162855
             N (  7)   C (  8)   H (  9)
   C (  8)  2.545091
   H (  9)  4.027296  2.046485
   H ( 10)  6.391712  4.062363  4.483580
 
 tim1(1): 
  1.919999999999977E-004
 tim1(2): 
  0.000000000000000E+000
 A cutoff of  1.0D-11 yielded    109 shell pairs
 There are       598 function pairs
 
 -------------------------------------------------------
 OpenMP Integral Computing Module                       
 Release: version 1.0, May 2013, Q-Chem Inc. Pittsburgh 
 -------------------------------------------------------
 Integral Job Info:
 Integral job number is                      11
 Integral operator is                         1
 short-range coefficients                     0
 long-range coefficients              100000000
 Omega coefficients                           0
 if combine SR and LR in K                    0
 Integral screening is                        0
 Integral computing path is                   2
 max size of driver memory is            800000
 size of driver memory is                 45569
 size of scratch memory is               945100
 max col of scratch BK array                289
 max len of scratch array in speh3           22
 max len of scratch index in speh4            8
 max int batch size is                      520
 min int batch size is                       52
 fixed nKL is                                52
 max L of basis functions is                  1
 order of int derivative is                   0
 number of shells is                         16
 number of basis is                          34
 number of cartesian basis is                34
 number of contracted shell pairs           109
 number of primitive shell pairs            591
 maxK2 (contraction) of shell pair            9
 max number of K2 of shell pair               1
 max number of CS2 of shell pair             20
 max number of PS2 of shell pair            120
 mem total for path MDJ                    9426
 -------------------------------------------------------
 Smallest overlap matrix eigenvalue = 7.01E-01

 Scale SEOQF with 1.000000e-01/1.000000e-01/1.000000e+00

 Standard Electronic Orientation quadrupole field applied
 Nucleus-field energy     =     0.0000000184 hartrees
 Guess MOs from SCF MO coefficient file
 Reading MOs from coefficient file
 Reading MOs from coefficient file
 A restricted hybrid HF-DFT SCF calculation will be
 performed using Pulay DIIS extrapolation
 Exchange:     0.2500 Hartree-Fock + 0.7500 PBE
 Correlation:  1.0000 PBE
 Using Euler-Maclaurin-Lebedev (75,302) quadrature formula
 SCF converges when DIIS error is below 1.0E-08
 using 4 threads for integral computing 
 -------------------------------------------------------
 OpenMP BLAS3 based DFT computing Module                
 Release: version 1.0, May 2013, Q-Chem Inc. Pittsburgh 
 -------------------------------------------------------
 ---------------------------------------
  Cycle       Energy         DIIS Error
 ---------------------------------------
    1    -258.5302311848      3.52E-09
    2    -258.5302311848      1.34E-08
    3    -258.5302311848      4.30E-09 Convergence criterion met
 ---------------------------------------
 SCF time:  CPU 1.63 s  wall 0.41 s
 SCF   energy in the final basis set = -258.5302311848
 Total energy in the final basis set = -258.5302311848
 Direct TDDFT/TDA calculation will be performed
 Exchange:     0.2500 Hartree-Fock + 0.7500 PBE
 Correlation:  1.0000 PBE
 Using Euler-Maclaurin-Lebedev (75,302) quadrature formula
 Singlet excitation energies requested
 CIS energy converged when residual is below 10e- 6
 ---------------------------------------------------
 Iter    Rts Conv    Rts Left    Ttl Dev     Max Dev
 ---------------------------------------------------
   1         0           3      0.007459    0.004610
   2         0           3      0.002608    0.001748
   3         0           3      0.000806    0.000640
   4         0           3      0.000306    0.000201
   5         0           3      0.000199    0.000115
   6         0           3      0.000041    0.000026
   7         0           3      0.000013    0.000007
   8         1           2      0.000004    0.000002
   9         3           0      0.000001    0.000001    Roots Converged
 ---------------------------------------------------
 
 
 ---------------------------------------------------
         TDDFT/TDA Excitation Energies              
 ---------------------------------------------------

 Excited state   1: excitation energy (eV) =   -0.4145
    Total energy for state   1:   -258.545463122033
    Multiplicity: Singlet 
    Trans. Mom.: -0.0000 X  -0.0000 Y  -0.0358 Z
    Strength   :    -0.0000130250
    D( 19) --> V(  5) amplitude =  0.5416
    D( 20) --> V(  1) amplitude =  0.7834
    D( 20) --> V(  8) amplitude =  0.2509

 Excited state   2: excitation energy (eV) =   -0.3821
    Total energy for state   2:   -258.544274931732
    Multiplicity: Singlet 
    Trans. Mom.: -0.0000 X   0.0000 Y   0.0000 Z
    Strength   :    -0.0000000000
    D( 19) --> V(  1) amplitude =  0.7638
    D( 19) --> V(  8) amplitude =  0.2468
    D( 20) --> V(  5) amplitude =  0.5712

 Excited state   3: excitation energy (eV) =    0.3518
    Total energy for state   3:   -258.517302557438
    Multiplicity: Singlet 
    Trans. Mom.:  0.4965 X  -0.0000 Y  -0.0000 Z
    Strength   :     0.0021245649
    D( 17) --> V(  5) amplitude =  0.2489
    D( 21) --> V(  1) amplitude =  0.8892
    D( 21) --> V(  8) amplitude =  0.2155
 
 ---------------------------------------------------
 Calculating Relaxed Density
 ---------------------------------------------------
 Iter    Rts Conv    Rts Left    Ttl Dev     Max Dev
 ---------------------------------------------------
   1         0           3      0.007300    0.003412
   2         0           3      0.001745    0.000735
   3         0           3      0.000343    0.000129
   4         0           3      0.000225    0.000085
   5         0           3      0.000039    0.000016
   6         0           3      0.000005    0.000003
   7         3           0      0.000000    0.000000    Roots Converged
 ---------------------------------------------------
  Timing summary (seconds)
  CPU time         26.76s
  System time       0.00s
  Wall time        14.62s
 
 --------------------------------------------------------------
 
                    Orbital Energies (a.u.)
 --------------------------------------------------------------
 
 Alpha MOs
 -- Occupied --
-14.126 -14.126 -10.053 -10.053 -10.052 -10.052  -0.629  -0.628
 -0.513  -0.506  -0.484  -0.476  -0.192  -0.191  -0.182  -0.176
 -0.168  -0.130  -0.118  -0.116  -0.112
 -- Virtual --
 -0.048  -0.039  -0.031  -0.023  -0.019  -0.017  -0.006   0.013
  0.037   0.043   0.044   0.053   0.056
 --------------------------------------------------------------
 
          Ground-State Mulliken Net Atomic Charges

     Atom                 Charge (a.u.)
  ----------------------------------------
      1 C                     0.107731
      2 N                    -0.077982
      3 C                     0.107730
      4 C                     0.107733
      5 H                    -0.068739
      6 H                    -0.068741
      7 N                    -0.077981
      8 C                     0.107730
      9 H                    -0.068740
     10 H                    -0.068742
  ----------------------------------------
  Sum of atomic charges =    -0.000000

 -----------------------------------------------------------------
                    Cartesian Multipole Moments
 -----------------------------------------------------------------
    Charge (ESU x 10^10)
                -0.0000
    Dipole Moment (Debye)
         X      -0.0000      Y      -0.0000      Z       0.0000
       Tot       0.0000
    Quadrupole Moments (Debye-Ang)
        XX     -36.2243     XY      -0.0001     YY     -38.2296
        XZ       0.0000     YZ      -0.0000     ZZ     -30.8362
    Octopole Moments (Debye-Ang^2)
       XXX      -0.0004    XXY      -0.0002    XYY       0.0002
       YYY      -0.0003    XXZ      -0.0001    XYZ      -0.0000
       YYZ      -0.0001    XZZ      -0.0000    YZZ      -0.0000
       ZZZ      -0.0002
    Hexadecapole Moments (Debye-Ang^3)
      XXXX   -1032.6613   XXXY      -0.0093   XXYY    -312.7105
      XYYY      -0.0112   YYYY    -780.9390   XXXZ       0.0002
      XXYZ       0.0002   XYYZ       0.0001   YYYZ      -0.0007
      XXZZ    -141.1681   XYZZ       0.0000   YYZZ    -139.6024
      XZZZ      -0.0000   YZZZ      -0.0001   ZZZZ     -21.9141
 -----------------------------------------------------------------
 Calculating analytic gradient of the CIS energy
 CIS relaxed dipole moment
            1
    1  -0.0000124
    2  -0.0002110
    3  -0.0000000
	Magnitude:	 0.000 au	 0.001 Debye
 CIS 1 State Energy is -258.5454631220
 Gradient of the state energy (including CIS Excitation Energy)
            1           2           3           4           5           6
    1  -0.0319434  -0.0000060   0.0319512   0.0319594  -0.0821133  -0.0821062
    2  -0.0315158   0.0540698  -0.0315074   0.0315075   0.0353698  -0.0353833
    3   0.0000005  -0.0000001  -0.0000002  -0.0000007   0.0000000   0.0000008
            7           8           9          10
    1  -0.0000001  -0.0319623   0.0821133   0.0821074
    2  -0.0540563   0.0315064  -0.0353713   0.0353806
    3  -0.0000001   0.0000001  -0.0000000  -0.0000003
 Gradient time:  CPU 4.67 s  wall 2.44 s
Archival summary:
1\1\theochem\JobtypUnspecified\ProcedureUnspecified\STO-3G\244\ehrmaier\MonSep3016:45:372019MonSep3016:45:372019\0\\#,JobtypUnspecified,ProcedureUnspecified,STO-3G,\\0,1\N\C,1,2.54508\H,2,2.04651,1,122.216\C,1,2.54509,2,114.656,3,-180,0\H,4,2.0465,1,122.217,2,-180,0\C,4,2.74659,1,122.672,2,0,0\H,6,2.04651,4,115.112,1,-180,0\N,6,2.54511,4,122.672,1,-0,0\C,8,2.54509,6,114.656,4,-0,0\H,9,2.04649,8,122.217,6,-180,0\\\@

 Total job time:  17.53s(wall), 33.23s(cpu) 
 Mon Sep 30 16:45:37 2019

        *************************************************************
        *                                                           *
        *  Thank you very much for using Q-Chem.  Have a nice day.  *
        *                                                           *
        *************************************************************


 
User input: 4 of 5 
 
                  Welcome to Q-Chem
     A Quantum Leap Into The Future Of Chemistry


 Q-Chem 4.3, Q-Chem, Inc., Pleasanton, CA (2015)

 Y. Shao,  Z. Gan,  E. Epifanovsky,  A. T. B. Gilbert,  M. Wormit,  
 J. Kussmann,  A. W. Lange,  A. Behn,  J. Deng,  X. Feng,  D. Ghosh,  
 M. Goldey,  P. R. Horn,  L. D. Jacobson,  I. Kaliman,  R. Z. Khaliullin,  
 T. Kus,  A. Landau,  J. Liu,  E. I. Proynov,  Y. M. Rhee,  R. M. Richard,  
 M. A. Rohrdanz,  R. P. Steele,  E. J. Sundstrom,  H. L. Woodcock III,  
 P. M. Zimmerman,  D. Zuev,  B. Albrecht,  E. Alguire,  B. Austin,  
 S. A. Baeppler,  G. J. O. Beran,  Y. A. Bernard,  E. Berquist,  
 K. Brandhorst,  K. B. Bravaya,  S. T. Brown,  D. Casanova,  C.-M. Chang,  
 Y. Chen,  S. H. Chien,  K. D. Closser,  D. L. Crittenden,  M. Diedenhofen,  
 R. A. DiStasio Jr.,  H. Do,  A. D. Dutoi,  R. G. Edgar,  P.-T. Fang,  
 S. Fatehi,  Q. Feng,  L. Fusti-Molnar,  A. Ghysels,  
 A. Golubeva-Zadorozhnaya,  J. Gomes,  A. Gunina,  M. W. D. Hanson-Heine,  
 P. H. P. Harbach,  A. W. Hauser,  E. G. Hohenstein,  Z. C. Holden,  K. Hui,  
 T.-C. Jagau,  H. Ji,  B. Kaduk,  K. Khistyaev,  Jaehoon Kim,  Jihan Kim,  
 R. A. King,  P. Klunzinger,  D. Kosenkov,  T. Kowalczyk,  C. M. Krauter,  
 K. U. Lao,  A. Laurent,  K. V. Lawler,  S. Lehtola,  S. V. Levchenko,  
 C. Y. Lin,  Y.-S. Lin,  F. Liu,  E. Livshits,  R. C. Lochan,  A. Luenser,  
 P. Manohar,  S. F. Manzer,  S.-P. Mao,  N. Mardirossian,  A. V. Marenich,  
 L. A. Martinez-Martinez,  S. A. Maurer,  N. J. Mayhall,  K. Nanda,  
 C. M. Oana,  R. Olivares-Amaya,  D. P. O'Neill,  J. A. Parkhill,  
 T. M. Perrine,  R. Peverati,  P. A. Pieniazek,  F. Plasser,  A. Prociuk,  
 D. R. Rehn,  E. Rosta,  N. J. Russ,  N. Sergueev,  S. M. Sharada,  
 S. Sharma,  D. W. Small,  A. Sodt,  T. Stauch,  T. Stein,  D. Stuck,  
 Y.-C. Su,  A. J. W. Thom,  T. Tsuchimochi,  L. Vogt,  O. Vydrov,  T. Wang,  
 M. A. Watson,  J. Wenzel,  A. White,  C. F. Williams,  V. Vanovschi,  
 S. Yeganeh,  S. R. Yost,  Z.-Q. You,  I. Y. Zhang,  X. Zhang,  Y. Zhao,  
 B. R. Brooks,  G. K. L. Chan,  D. M. Chipman,  C. J. Cramer,  
 W. A. Goddard III,  M. S. Gordon,  W. J. Hehre,  A. Klamt,  
 H. F. Schaefer III,  M. W. Schmidt,  C. D. Sherrill,  D. G. Truhlar,  
 A. Warshel,  X. Xu,  A. Aspuru-Guzik,  R. Baer,  A. T. Bell,  N. A. Besley,  
 J.-D. Chai,  A. Dreuw,  B. D. Dunietz,  T. R. Furlani,  S. R. Gwaltney,  
 C.-P. Hsu,  Y. Jung,  J. Kong,  D. S. Lambrecht,  W. Liang,  C. Ochsenfeld,  
 V. A. Rassolov,  L. V. Slipchenko,  J. E. Subotnik,  T. Van Voorhis,  
 J. M. Herbert,  A. I. Krylov,  P. M. W. Gill,  M. Head-Gordon

 Contributors to earlier versions of Q-Chem not listed above: 
 R. D. Adamson,  J. Baker,  E. F. C. Byrd,  A. K. Chakraborty,  C.-L. Cheng,  
 H. Dachsel,  R. J. Doerksen,  G. Hawkins,  A. Heyden,  S. Hirata,  
 G. Kedziora,  F. J. Keil,  C. Kelley,  P. P. Korambath,  W. Kurlancheek,  
 A. M. Lee,  M. S. Lee,  D. Liotard,  I. Lotan,  P. E. Maslen,  N. Nair,  
 D. Neuhauser,  R. Olson,  B. Peters,  J. Ritchie,  N. E. Schultz,  
 N. Shenvi,  A. C. Simmonett,  K. S. Thanthiriwatte,  Q. Wu,  W. Zhang

 Please cite Q-Chem as follows:
 Y. Shao et al., Mol. Phys. 113, 184-215 (2015)
 DOI: 10.1080/00268976.2014.952696

 Q-Chem 4.3.0 for Intel X86 EM64T Linux

 Parts of Q-Chem use Armadillo 5.200.1 (Boston Tea Smuggler).
 http://arma.sourceforge.net/

 Q-Chem begins on Mon Sep 30 16:45:37 2019  

Host: theochem
0

     Scratch files written to /tmp/qchem394009//

Checking the input file for inconsistencies... 	...done.

--------------------------------------------------------------
User input:
--------------------------------------------------------------
$molecule
0 1
read
$end



$rem
jobtype FORCE
cis_n_roots 3
cis_triplets false
set_iter 50
CIS_STATE_DERIV 2
exchange pbe0 
basis sto-3g
RPA 0
scf_guess read
xc_grid 000075000302
MAX_SCF_CYCLES 500
mem_static 4000
mem_total 16000
SYM_IGNORE TRUE
$end



--------------------------------------------------------------
 ----------------------------------------------------------------
             Standard Nuclear Orientation (Angstroms)
    I     Atom           X                Y                Z
 ----------------------------------------------------------------
    1      C       2.1422900000     1.3734400000     0.0000100000
    2      N      -0.0001800000     2.7472200000     0.0000000000
    3      C      -2.1424800000     1.3731600000     0.0000000000
    4      C      -2.1423100000    -1.3734300000     0.0000000000
    5      H      -3.9956200000     2.2415100000     0.0000000000
    6      H      -3.9953300000    -2.2420700000     0.0000200000
    7      N       0.0001900000    -2.7472200000     0.0000000000
    8      C       2.1424900000    -1.3731600000     0.0000000000
    9      H       3.9956100000    -2.2415200000     0.0000000000
   10      H       3.9953200000     2.2420600000     0.0000000000
 ----------------------------------------------------------------
 Nuclear Repulsion Energy =   108.6877807706 hartrees
 There are       21 alpha and       21 beta electrons
 Requested basis set is STO-3G
 There are 16 shells and 34 basis functions

 Total QAlloc Memory Limit  16000 MB
 Mega-Array Size      3911 MB
 MEM_STATIC part      4000 MB

                       Distance Matrix (Angstroms)
             C (  1)   N (  2)   C (  3)   C (  4)   H (  5)   H (  6)
   N (  2)  2.545083
   C (  3)  4.284770  2.545091
   C (  4)  5.089508  4.644187  2.746590
   H (  5)  6.198991  4.027317  2.046499  4.062333
   H (  6)  7.123362  6.391732  4.062381  2.046514  4.483580
   N (  7)  4.644183  5.494440  4.644197  2.545114  6.391707  4.027326
   C (  8)  2.746600  4.644197  5.089523  4.284800  7.123358  6.199019
   H (  9)  4.062355  6.391703  7.123346  6.199003  9.162822  7.990940
   H ( 10)  2.046514  4.027308  6.198998  7.123361  7.990940  9.162855
             N (  7)   C (  8)   H (  9)
   C (  8)  2.545091
   H (  9)  4.027296  2.046485
   H ( 10)  6.391712  4.062363  4.483580
 
 tim1(1): 
  1.849999999999977E-004
 tim1(2): 
  0.000000000000000E+000
 A cutoff of  1.0D-11 yielded    109 shell pairs
 There are       598 function pairs
 
 -------------------------------------------------------
 OpenMP Integral Computing Module                       
 Release: version 1.0, May 2013, Q-Chem Inc. Pittsburgh 
 -------------------------------------------------------
 Integral Job Info:
 Integral job number is                      11
 Integral operator is                         1
 short-range coefficients                     0
 long-range coefficients              100000000
 Omega coefficients                           0
 if combine SR and LR in K                    0
 Integral screening is                        0
 Integral computing path is                   2
 max size of driver memory is            800000
 size of driver memory is                 45569
 size of scratch memory is               945100
 max col of scratch BK array                289
 max len of scratch array in speh3           22
 max len of scratch index in speh4            8
 max int batch size is                      520
 min int batch size is                       52
 fixed nKL is                                52
 max L of basis functions is                  1
 order of int derivative is                   0
 number of shells is                         16
 number of basis is                          34
 number of cartesian basis is                34
 number of contracted shell pairs           109
 number of primitive shell pairs            591
 maxK2 (contraction) of shell pair            9
 max number of K2 of shell pair               1
 max number of CS2 of shell pair             20
 max number of PS2 of shell pair            120
 mem total for path MDJ                    9426
 -------------------------------------------------------
 Smallest overlap matrix eigenvalue = 7.01E-01

 Scale SEOQF with 1.000000e-01/1.000000e-01/1.000000e+00

 Standard Electronic Orientation quadrupole field applied
 Nucleus-field energy     =     0.0000000184 hartrees
 Guess MOs from SCF MO coefficient file
 Reading MOs from coefficient file
 Reading MOs from coefficient file
 A restricted hybrid HF-DFT SCF calculation will be
 performed using Pulay DIIS extrapolation
 Exchange:     0.2500 Hartree-Fock + 0.7500 PBE
 Correlation:  1.0000 PBE
 Using Euler-Maclaurin-Lebedev (75,302) quadrature formula
 SCF converges when DIIS error is below 1.0E-08
 using 4 threads for integral computing 
 -------------------------------------------------------
 OpenMP BLAS3 based DFT computing Module                
 Release: version 1.0, May 2013, Q-Chem Inc. Pittsburgh 
 -------------------------------------------------------
 ---------------------------------------
  Cycle       Energy         DIIS Error
 ---------------------------------------
    1    -258.5302311848      2.96E-09
    2    -258.5302311848      1.83E-08
    3    -258.5302311848      3.48E-09 Convergence criterion met
 ---------------------------------------
 SCF time:  CPU 1.59 s  wall 0.40 s
 SCF   energy in the final basis set = -258.5302311848
 Total energy in the final basis set = -258.5302311848
 Direct TDDFT/TDA calculation will be performed
 Exchange:     0.2500 Hartree-Fock + 0.7500 PBE
 Correlation:  1.0000 PBE
 Using Euler-Maclaurin-Lebedev (75,302) quadrature formula
 Singlet excitation energies requested
 CIS energy converged when residual is below 10e- 6
 ---------------------------------------------------
 Iter    Rts Conv    Rts Left    Ttl Dev     Max Dev
 ---------------------------------------------------
   1         0           3      0.007459    0.004610
   2         0           3      0.002608    0.001748
   3         0           3      0.000806    0.000640
   4         0           3      0.000306    0.000201
   5         0           3      0.000199    0.000115
   6         0           3      0.000041    0.000026
   7         0           3      0.000013    0.000007
   8         1           2      0.000004    0.000002
   9         3           0      0.000001    0.000001    Roots Converged
 ---------------------------------------------------
 
 
 ---------------------------------------------------
         TDDFT/TDA Excitation Energies              
 ---------------------------------------------------

 Excited state   1: excitation energy (eV) =   -0.4145
    Total energy for state   1:   -258.545463121902
    Multiplicity: Singlet 
    Trans. Mom.: -0.0000 X  -0.0000 Y  -0.0358 Z
    Strength   :    -0.0000130250
    D( 19) --> V(  5) amplitude =  0.5416
    D( 20) --> V(  1) amplitude =  0.7834
    D( 20) --> V(  8) amplitude =  0.2509

 Excited state   2: excitation energy (eV) =   -0.3821
    Total energy for state   2:   -258.544274931687
    Multiplicity: Singlet 
    Trans. Mom.: -0.0000 X   0.0000 Y   0.0000 Z
    Strength   :    -0.0000000000
    D( 19) --> V(  1) amplitude =  0.7638
    D( 19) --> V(  8) amplitude =  0.2468
    D( 20) --> V(  5) amplitude =  0.5712

 Excited state   3: excitation energy (eV) =    0.3518
    Total energy for state   3:   -258.517302557717
    Multiplicity: Singlet 
    Trans. Mom.:  0.4965 X  -0.0000 Y  -0.0000 Z
    Strength   :     0.0021245651
    D( 17) --> V(  5) amplitude =  0.2489
    D( 21) --> V(  1) amplitude =  0.8892
    D( 21) --> V(  8) amplitude =  0.2155
 
 ---------------------------------------------------
 Calculating Relaxed Density
 ---------------------------------------------------
 Iter    Rts Conv    Rts Left    Ttl Dev     Max Dev
 ---------------------------------------------------
   1         0           3      0.007300    0.003412
   2         0           3      0.001746    0.000736
   3         0           3      0.000343    0.000129
   4         0           3      0.000225    0.000085
   5         0           3      0.000039    0.000016
   6         0           3      0.000005    0.000003
   7         3           0      0.000000    0.000000    Roots Converged
 ---------------------------------------------------
  Timing summary (seconds)
  CPU time         27.03s
  System time       0.00s
  Wall time        14.63s
 
 --------------------------------------------------------------
 
                    Orbital Energies (a.u.)
 --------------------------------------------------------------
 
 Alpha MOs
 -- Occupied --
-14.126 -14.126 -10.053 -10.053 -10.052 -10.052  -0.629  -0.628
 -0.513  -0.506  -0.484  -0.476  -0.192  -0.191  -0.182  -0.176
 -0.168  -0.130  -0.118  -0.116  -0.112
 -- Virtual --
 -0.048  -0.039  -0.031  -0.023  -0.019  -0.017  -0.006   0.013
  0.037   0.043   0.044   0.053   0.056
 --------------------------------------------------------------
 
          Ground-State Mulliken Net Atomic Charges

     Atom                 Charge (a.u.)
  ----------------------------------------
      1 C                     0.107731
      2 N                    -0.077982
      3 C                     0.107730
      4 C                     0.107733
      5 H                    -0.068739
      6 H                    -0.068741
      7 N                    -0.077981
      8 C                     0.107730
      9 H                    -0.068740
     10 H                    -0.068742
  ----------------------------------------
  Sum of atomic charges =    -0.000000

 -----------------------------------------------------------------
                    Cartesian Multipole Moments
 -----------------------------------------------------------------
    Charge (ESU x 10^10)
                 0.0000
    Dipole Moment (Debye)
         X      -0.0000      Y      -0.0000      Z       0.0000
       Tot       0.0000
    Quadrupole Moments (Debye-Ang)
        XX     -36.2243     XY      -0.0001     YY     -38.2296
        XZ       0.0000     YZ      -0.0000     ZZ     -30.8362
    Octopole Moments (Debye-Ang^2)
       XXX      -0.0004    XXY      -0.0002    XYY       0.0003
       YYY      -0.0003    XXZ      -0.0001    XYZ      -0.0000
       YYZ      -0.0001    XZZ      -0.0000    YZZ      -0.0000
       ZZZ      -0.0002
    Hexadecapole Moments (Debye-Ang^3)
      XXXX   -1032.6613   XXXY      -0.0094   XXYY    -312.7105
      XYYY      -0.0112   YYYY    -780.9391   XXXZ       0.0002
      XXYZ       0.0002   XYYZ       0.0001   YYYZ      -0.0007
      XXZZ    -141.1681   XYZZ       0.0000   YYZZ    -139.6024
      XZZZ      -0.0000   YZZZ      -0.0001   ZZZZ     -21.9141
 -----------------------------------------------------------------
 Calculating analytic gradient of the CIS energy
 CIS relaxed dipole moment
            1
    1  -0.0000136
    2   0.0001732
    3  -0.0000001
	Magnitude:	 0.000 au	 0.000 Debye
 CIS 2 State Energy is -258.5442749317
 Gradient of the state energy (including CIS Excitation Energy)
            1           2           3           4           5           6
    1  -0.0329270  -0.0000061   0.0329350   0.0329177  -0.0820626  -0.0820569
    2  -0.0319532   0.0535765  -0.0319446   0.0319556   0.0355587  -0.0355709
    3   0.0000006  -0.0000001  -0.0000001  -0.0000007   0.0000000   0.0000008
            7           8           9          10
    1  -0.0000002  -0.0329205   0.0820641   0.0820567
    2  -0.0535873   0.0319545  -0.0355589   0.0355695
    3  -0.0000001   0.0000001  -0.0000001  -0.0000004
 Gradient time:  CPU 4.73 s  wall 2.44 s
Archival summary:
1\1\theochem\JobtypUnspecified\ProcedureUnspecified\STO-3G\244\ehrmaier\MonSep3016:45:552019MonSep3016:45:552019\0\\#,JobtypUnspecified,ProcedureUnspecified,STO-3G,\\0,1\N\C,1,2.54508\H,2,2.04651,1,122.216\C,1,2.54509,2,114.656,3,-180,0\H,4,2.0465,1,122.217,2,-180,0\C,4,2.74659,1,122.672,2,0,0\H,6,2.04651,4,115.112,1,-180,0\N,6,2.54511,4,122.672,1,-0,0\C,8,2.54509,6,114.656,4,-0,0\H,9,2.04649,8,122.217,6,-180,0\\\@

 Total job time:  17.53s(wall), 33.52s(cpu) 
 Mon Sep 30 16:45:55 2019

        *************************************************************
        *                                                           *
        *  Thank you very much for using Q-Chem.  Have a nice day.  *
        *                                                           *
        *************************************************************


 
User input: 5 of 5 
 
                  Welcome to Q-Chem
     A Quantum Leap Into The Future Of Chemistry


 Q-Chem 4.3, Q-Chem, Inc., Pleasanton, CA (2015)

 Y. Shao,  Z. Gan,  E. Epifanovsky,  A. T. B. Gilbert,  M. Wormit,  
 J. Kussmann,  A. W. Lange,  A. Behn,  J. Deng,  X. Feng,  D. Ghosh,  
 M. Goldey,  P. R. Horn,  L. D. Jacobson,  I. Kaliman,  R. Z. Khaliullin,  
 T. Kus,  A. Landau,  J. Liu,  E. I. Proynov,  Y. M. Rhee,  R. M. Richard,  
 M. A. Rohrdanz,  R. P. Steele,  E. J. Sundstrom,  H. L. Woodcock III,  
 P. M. Zimmerman,  D. Zuev,  B. Albrecht,  E. Alguire,  B. Austin,  
 S. A. Baeppler,  G. J. O. Beran,  Y. A. Bernard,  E. Berquist,  
 K. Brandhorst,  K. B. Bravaya,  S. T. Brown,  D. Casanova,  C.-M. Chang,  
 Y. Chen,  S. H. Chien,  K. D. Closser,  D. L. Crittenden,  M. Diedenhofen,  
 R. A. DiStasio Jr.,  H. Do,  A. D. Dutoi,  R. G. Edgar,  P.-T. Fang,  
 S. Fatehi,  Q. Feng,  L. Fusti-Molnar,  A. Ghysels,  
 A. Golubeva-Zadorozhnaya,  J. Gomes,  A. Gunina,  M. W. D. Hanson-Heine,  
 P. H. P. Harbach,  A. W. Hauser,  E. G. Hohenstein,  Z. C. Holden,  K. Hui,  
 T.-C. Jagau,  H. Ji,  B. Kaduk,  K. Khistyaev,  Jaehoon Kim,  Jihan Kim,  
 R. A. King,  P. Klunzinger,  D. Kosenkov,  T. Kowalczyk,  C. M. Krauter,  
 K. U. Lao,  A. Laurent,  K. V. Lawler,  S. Lehtola,  S. V. Levchenko,  
 C. Y. Lin,  Y.-S. Lin,  F. Liu,  E. Livshits,  R. C. Lochan,  A. Luenser,  
 P. Manohar,  S. F. Manzer,  S.-P. Mao,  N. Mardirossian,  A. V. Marenich,  
 L. A. Martinez-Martinez,  S. A. Maurer,  N. J. Mayhall,  K. Nanda,  
 C. M. Oana,  R. Olivares-Amaya,  D. P. O'Neill,  J. A. Parkhill,  
 T. M. Perrine,  R. Peverati,  P. A. Pieniazek,  F. Plasser,  A. Prociuk,  
 D. R. Rehn,  E. Rosta,  N. J. Russ,  N. Sergueev,  S. M. Sharada,  
 S. Sharma,  D. W. Small,  A. Sodt,  T. Stauch,  T. Stein,  D. Stuck,  
 Y.-C. Su,  A. J. W. Thom,  T. Tsuchimochi,  L. Vogt,  O. Vydrov,  T. Wang,  
 M. A. Watson,  J. Wenzel,  A. White,  C. F. Williams,  V. Vanovschi,  
 S. Yeganeh,  S. R. Yost,  Z.-Q. You,  I. Y. Zhang,  X. Zhang,  Y. Zhao,  
 B. R. Brooks,  G. K. L. Chan,  D. M. Chipman,  C. J. Cramer,  
 W. A. Goddard III,  M. S. Gordon,  W. J. Hehre,  A. Klamt,  
 H. F. Schaefer III,  M. W. Schmidt,  C. D. Sherrill,  D. G. Truhlar,  
 A. Warshel,  X. Xu,  A. Aspuru-Guzik,  R. Baer,  A. T. Bell,  N. A. Besley,  
 J.-D. Chai,  A. Dreuw,  B. D. Dunietz,  T. R. Furlani,  S. R. Gwaltney,  
 C.-P. Hsu,  Y. Jung,  J. Kong,  D. S. Lambrecht,  W. Liang,  C. Ochsenfeld,  
 V. A. Rassolov,  L. V. Slipchenko,  J. E. Subotnik,  T. Van Voorhis,  
 J. M. Herbert,  A. I. Krylov,  P. M. W. Gill,  M. Head-Gordon

 Contributors to earlier versions of Q-Chem not listed above: 
 R. D. Adamson,  J. Baker,  E. F. C. Byrd,  A. K. Chakraborty,  C.-L. Cheng,  
 H. Dachsel,  R. J. Doerksen,  G. Hawkins,  A. Heyden,  S. Hirata,  
 G. Kedziora,  F. J. Keil,  C. Kelley,  P. P. Korambath,  W. Kurlancheek,  
 A. M. Lee,  M. S. Lee,  D. Liotard,  I. Lotan,  P. E. Maslen,  N. Nair,  
 D. Neuhauser,  R. Olson,  B. Peters,  J. Ritchie,  N. E. Schultz,  
 N. Shenvi,  A. C. Simmonett,  K. S. Thanthiriwatte,  Q. Wu,  W. Zhang

 Please cite Q-Chem as follows:
 Y. Shao et al., Mol. Phys. 113, 184-215 (2015)
 DOI: 10.1080/00268976.2014.952696

 Q-Chem 4.3.0 for Intel X86 EM64T Linux

 Parts of Q-Chem use Armadillo 5.200.1 (Boston Tea Smuggler).
 http://arma.sourceforge.net/

 Q-Chem begins on Mon Sep 30 16:45:55 2019  

Host: theochem
0

     Scratch files written to /tmp/qchem394009//

Checking the input file for inconsistencies... 	...done.

--------------------------------------------------------------
User input:
--------------------------------------------------------------
$molecule
0 1
read
$end



$rem
jobtype FORCE
cis_n_roots 3
cis_triplets false
set_iter 50
CIS_STATE_DERIV 3
exchange pbe0 
basis sto-3g
RPA 0
scf_guess read
xc_grid 000075000302
MAX_SCF_CYCLES 500
mem_static 4000
mem_total 16000
SYM_IGNORE TRUE
$end
--------------------------------------------------------------
 ----------------------------------------------------------------
             Standard Nuclear Orientation (Angstroms)
    I     Atom           X                Y                Z
 ----------------------------------------------------------------
    1      C       2.1422900000     1.3734400000     0.0000100000
    2      N      -0.0001800000     2.7472200000     0.0000000000
    3      C      -2.1424800000     1.3731600000     0.0000000000
    4      C      -2.1423100000    -1.3734300000     0.0000000000
    5      H      -3.9956200000     2.2415100000     0.0000000000
    6      H      -3.9953300000    -2.2420700000     0.0000200000
    7      N       0.0001900000    -2.7472200000     0.0000000000
    8      C       2.1424900000    -1.3731600000     0.0000000000
    9      H       3.9956100000    -2.2415200000     0.0000000000
   10      H       3.9953200000     2.2420600000     0.0000000000
 ----------------------------------------------------------------
 Nuclear Repulsion Energy =   108.6877807706 hartrees
 There are       21 alpha and       21 beta electrons
 Requested basis set is STO-3G
 There are 16 shells and 34 basis functions

 Total QAlloc Memory Limit  16000 MB
 Mega-Array Size      3911 MB
 MEM_STATIC part      4000 MB

                       Distance Matrix (Angstroms)
             C (  1)   N (  2)   C (  3)   C (  4)   H (  5)   H (  6)
   N (  2)  2.545083
   C (  3)  4.284770  2.545091
   C (  4)  5.089508  4.644187  2.746590
   H (  5)  6.198991  4.027317  2.046499  4.062333
   H (  6)  7.123362  6.391732  4.062381  2.046514  4.483580
   N (  7)  4.644183  5.494440  4.644197  2.545114  6.391707  4.027326
   C (  8)  2.746600  4.644197  5.089523  4.284800  7.123358  6.199019
   H (  9)  4.062355  6.391703  7.123346  6.199003  9.162822  7.990940
   H ( 10)  2.046514  4.027308  6.198998  7.123361  7.990940  9.162855
             N (  7)   C (  8)   H (  9)
   C (  8)  2.545091
   H (  9)  4.027296  2.046485
   H ( 10)  6.391712  4.062363  4.483580
 
 tim1(1): 
  1.869999999999997E-004
 tim1(2): 
  0.000000000000000E+000
 A cutoff of  1.0D-11 yielded    109 shell pairs
 There are       598 function pairs
 
 -------------------------------------------------------
 OpenMP Integral Computing Module                       
 Release: version 1.0, May 2013, Q-Chem Inc. Pittsburgh 
 -------------------------------------------------------
 Integral Job Info:
 Integral job number is                      11
 Integral operator is                         1
 short-range coefficients                     0
 long-range coefficients              100000000
 Omega coefficients                           0
 if combine SR and LR in K                    0
 Integral screening is                        0
 Integral computing path is                   2
 max size of driver memory is            800000
 size of driver memory is                 45569
 size of scratch memory is               945100
 max col of scratch BK array                289
 max len of scratch array in speh3           22
 max len of scratch index in speh4            8
 max int batch size is                      520
 min int batch size is                       52
 fixed nKL is                                52
 max L of basis functions is                  1
 order of int derivative is                   0
 number of shells is                         16
 number of basis is                          34
 number of cartesian basis is                34
 number of contracted shell pairs           109
 number of primitive shell pairs            591
 maxK2 (contraction) of shell pair            9
 max number of K2 of shell pair               1
 max number of CS2 of shell pair             20
 max number of PS2 of shell pair            120
 mem total for path MDJ                    9426
 -------------------------------------------------------
 Smallest overlap matrix eigenvalue = 7.01E-01

 Scale SEOQF with 1.000000e-01/1.000000e-01/1.000000e+00

 Standard Electronic Orientation quadrupole field applied
 Nucleus-field energy     =     0.0000000184 hartrees
 Guess MOs from SCF MO coefficient file
 Reading MOs from coefficient file
 Reading MOs from coefficient file
 A restricted hybrid HF-DFT SCF calculation will be
 performed using Pulay DIIS extrapolation
 Exchange:     0.2500 Hartree-Fock + 0.7500 PBE
 Correlation:  1.0000 PBE
 Using Euler-Maclaurin-Lebedev (75,302) quadrature formula
 SCF converges when DIIS error is below 1.0E-08
 using 4 threads for integral computing 
 -------------------------------------------------------
 OpenMP BLAS3 based DFT computing Module                
 Release: version 1.0, May 2013, Q-Chem Inc. Pittsburgh 
 -------------------------------------------------------
 ---------------------------------------
  Cycle       Energy         DIIS Error
 ---------------------------------------
    1    -258.5302311848      1.35E-09
    2    -258.5302311848      5.06E-09 Convergence criterion met
 ---------------------------------------
 SCF time:  CPU 1.12 s  wall 0.28 s
 SCF   energy in the final basis set = -258.5302311848
 Total energy in the final basis set = -258.5302311848
 Direct TDDFT/TDA calculation will be performed
 Exchange:     0.2500 Hartree-Fock + 0.7500 PBE
 Correlation:  1.0000 PBE
 Using Euler-Maclaurin-Lebedev (75,302) quadrature formula
 Singlet excitation energies requested
 CIS energy converged when residual is below 10e- 6
 ---------------------------------------------------
 Iter    Rts Conv    Rts Left    Ttl Dev     Max Dev
 ---------------------------------------------------
   1         0           3      0.007459    0.004610
   2         0           3      0.002608    0.001748
   3         0           3      0.000806    0.000640
   4         0           3      0.000306    0.000201
   5         0           3      0.000199    0.000115
   6         0           3      0.000041    0.000026
   7         0           3      0.000013    0.000007
   8         1           2      0.000004    0.000002
   9         3           0      0.000001    0.000001    Roots Converged
 ---------------------------------------------------
 
 
 ---------------------------------------------------
         TDDFT/TDA Excitation Energies              
 ---------------------------------------------------

 Excited state   1: excitation energy (eV) =   -0.4145
    Total energy for state   1:   -258.545463122023
    Multiplicity: Singlet 
    Trans. Mom.: -0.0000 X  -0.0000 Y  -0.0358 Z
    Strength   :    -0.0000130250
    D( 19) --> V(  5) amplitude =  0.5416
    D( 20) --> V(  1) amplitude =  0.7834
    D( 20) --> V(  8) amplitude =  0.2509

 Excited state   2: excitation energy (eV) =   -0.3821
    Total energy for state   2:   -258.544274931819
    Multiplicity: Singlet 
    Trans. Mom.: -0.0000 X   0.0000 Y   0.0000 Z
    Strength   :    -0.0000000000
    D( 19) --> V(  1) amplitude =  0.7638
    D( 19) --> V(  8) amplitude =  0.2468
    D( 20) --> V(  5) amplitude =  0.5712

 Excited state   3: excitation energy (eV) =    0.3518
    Total energy for state   3:   -258.517302557613
    Multiplicity: Singlet 
    Trans. Mom.:  0.4965 X  -0.0000 Y   0.0000 Z
    Strength   :     0.0021245651
    D( 17) --> V(  5) amplitude =  0.2489
    D( 21) --> V(  1) amplitude =  0.8892
    D( 21) --> V(  8) amplitude =  0.2155
 
 ---------------------------------------------------
 Calculating Relaxed Density
 ---------------------------------------------------
 Iter    Rts Conv    Rts Left    Ttl Dev     Max Dev
 ---------------------------------------------------
   1         0           3      0.007300    0.003412
   2         0           3      0.001747    0.000736
   3         0           3      0.000343    0.000129
   4         0           3      0.000225    0.000085
   5         0           3      0.000039    0.000016
   6         0           3      0.000005    0.000003
   7         3           0      0.000000    0.000000    Roots Converged
 ---------------------------------------------------
  Timing summary (seconds)
  CPU time         27.06s
  System time       0.00s
  Wall time        14.77s
 
 --------------------------------------------------------------
 
                    Orbital Energies (a.u.)
 --------------------------------------------------------------
 
 Alpha MOs
 -- Occupied --
-14.126 -14.126 -10.053 -10.053 -10.052 -10.052  -0.629  -0.628
 -0.513  -0.506  -0.484  -0.476  -0.192  -0.191  -0.182  -0.176
 -0.168  -0.130  -0.118  -0.116  -0.112
 -- Virtual --
 -0.048  -0.039  -0.031  -0.023  -0.019  -0.017  -0.006   0.013
  0.037   0.043   0.044   0.053   0.056
 --------------------------------------------------------------
 
          Ground-State Mulliken Net Atomic Charges

     Atom                 Charge (a.u.)
  ----------------------------------------
      1 C                     0.107731
      2 N                    -0.077982
      3 C                     0.107730
      4 C                     0.107733
      5 H                    -0.068739
      6 H                    -0.068741
      7 N                    -0.077981
      8 C                     0.107730
      9 H                    -0.068740
     10 H                    -0.068742
  ----------------------------------------
  Sum of atomic charges =     0.000000

 -----------------------------------------------------------------
                    Cartesian Multipole Moments
 -----------------------------------------------------------------
    Charge (ESU x 10^10)
                 0.0000
    Dipole Moment (Debye)
         X      -0.0000      Y      -0.0000      Z       0.0000
       Tot       0.0000
    Quadrupole Moments (Debye-Ang)
        XX     -36.2243     XY      -0.0001     YY     -38.2296
        XZ       0.0000     YZ      -0.0000     ZZ     -30.8362
    Octopole Moments (Debye-Ang^2)
       XXX      -0.0004    XXY      -0.0002    XYY       0.0002
       YYY      -0.0003    XXZ      -0.0001    XYZ      -0.0000
       YYZ      -0.0001    XZZ      -0.0000    YZZ      -0.0000
       ZZZ      -0.0002
    Hexadecapole Moments (Debye-Ang^3)
      XXXX   -1032.6613   XXXY      -0.0094   XXYY    -312.7105
      XYYY      -0.0112   YYYY    -780.9391   XXXZ       0.0002
      XXYZ       0.0002   XYYZ       0.0001   YYYZ      -0.0007
      XXZZ    -141.1681   XYZZ       0.0000   YYZZ    -139.6024
      XZZZ      -0.0000   YZZZ      -0.0001   ZZZZ     -21.9141
 -----------------------------------------------------------------
 Calculating analytic gradient of the CIS energy
 CIS relaxed dipole moment
            1
    1  -0.0000116
    2   0.0000166
    3   0.0000005
	Magnitude:	 0.000 au	 0.000 Debye
 CIS 3 State Energy is -258.5173025576
 Gradient of the state energy (including CIS Excitation Energy)
            1           2           3           4           5           6
    1  -0.0290980  -0.0000049   0.0291041   0.0291006  -0.0822969  -0.0822903
    2  -0.0260110   0.0542200  -0.0260042   0.0260088   0.0363474  -0.0363603
    3   0.0000003  -0.0000001   0.0000001  -0.0000010  -0.0000001   0.0000009
            7           8           9          10
    1   0.0000004  -0.0291030   0.0822972   0.0822908
    2  -0.0542181   0.0260073  -0.0363484   0.0363585
    3  -0.0000001   0.0000004  -0.0000002  -0.0000002
 Gradient time:  CPU 5.01 s  wall 2.72 s
Archival summary:
1\1\theochem\JobtypUnspecified\ProcedureUnspecified\STO-3G\244\ehrmaier\MonSep3016:46:132019MonSep3016:46:132019\0\\#,JobtypUnspecified,ProcedureUnspecified,STO-3G,\\0,1\N\C,1,2.54508\H,2,2.04651,1,122.216\C,1,2.54509,2,114.656,3,-180,0\H,4,2.0465,1,122.217,2,-180,0\C,4,2.74659,1,122.672,2,0,0\H,6,2.04651,4,115.112,1,-180,0\N,6,2.54511,4,122.672,1,-0,0\C,8,2.54509,6,114.656,4,-0,0\H,9,2.04649,8,122.217,6,-180,0\\\@

 Total job time:  17.83s(wall), 33.36s(cpu) 
 Mon Sep 30 16:46:13 2019

        *************************************************************
        *                                                           *
        *  Thank you very much for using Q-Chem.  Have a nice day.  *
        *                                                           *
        *************************************************************


