This is a multi-thread run using 4 threads
/home/rehn/Q-Chem/exe/qcprog.exe .test.inp.271555.qcin.1 /tmp/qchem271555/

                  Welcome to Q-Chem
     A Quantum Leap Into The Future Of Chemistry


 Q-Chem 4.3, Q-Chem, Inc., Pleasanton, CA (2015)

 Y. Shao,  Z. Gan,  E. Epifanovsky,  A. T. B. Gilbert,  M. Wormit,  
 J. Kussmann,  A. W. Lange,  A. Behn,  J. Deng,  X. Feng,  D. Ghosh,  
 M. Goldey,  P. R. Horn,  L. D. Jacobson,  I. Kaliman,  R. Z. Khaliullin,  
 T. Kus,  A. Landau,  J. Liu,  E. I. Proynov,  Y. M. Rhee,  R. M. Richard,  
 M. A. Rohrdanz,  R. P. Steele,  E. J. Sundstrom,  H. L. Woodcock III,  
 P. M. Zimmerman,  D. Zuev,  B. Albrecht,  E. Alguire,  B. Austin,  
 S. A. Baeppler,  G. J. O. Beran,  Y. A. Bernard,  E. Berquist,  
 K. Brandhorst,  K. B. Bravaya,  S. T. Brown,  D. Casanova,  C.-M. Chang,  
 Y. Chen,  S. H. Chien,  K. D. Closser,  D. L. Crittenden,  M. Diedenhofen,  
 R. A. DiStasio Jr.,  H. Do,  A. D. Dutoi,  R. G. Edgar,  P.-T. Fang,  
 S. Fatehi,  Q. Feng,  L. Fusti-Molnar,  A. Ghysels,  
 A. Golubeva-Zadorozhnaya,  J. Gomes,  A. Gunina,  M. W. D. Hanson-Heine,  
 P. H. P. Harbach,  A. W. Hauser,  E. G. Hohenstein,  Z. C. Holden,  K. Hui,  
 T.-C. Jagau,  H. Ji,  B. Kaduk,  K. Khistyaev,  Jaehoon Kim,  Jihan Kim,  
 R. A. King,  P. Klunzinger,  D. Kosenkov,  T. Kowalczyk,  C. M. Krauter,  
 K. U. Lao,  A. Laurent,  K. V. Lawler,  S. Lehtola,  S. V. Levchenko,  
 C. Y. Lin,  Y.-S. Lin,  F. Liu,  E. Livshits,  R. C. Lochan,  A. Luenser,  
 P. Manohar,  S. F. Manzer,  S.-P. Mao,  N. Mardirossian,  A. V. Marenich,  
 L. A. Martinez-Martinez,  S. A. Maurer,  N. J. Mayhall,  K. Nanda,  
 C. M. Oana,  R. Olivares-Amaya,  D. P. O'Neill,  J. A. Parkhill,  
 T. M. Perrine,  R. Peverati,  P. A. Pieniazek,  F. Plasser,  A. Prociuk,  
 D. R. Rehn,  E. Rosta,  N. J. Russ,  N. Sergueev,  S. M. Sharada,  
 S. Sharma,  D. W. Small,  A. Sodt,  T. Stauch,  T. Stein,  D. Stuck,  
 Y.-C. Su,  A. J. W. Thom,  T. Tsuchimochi,  L. Vogt,  O. Vydrov,  T. Wang,  
 M. A. Watson,  J. Wenzel,  A. White,  C. F. Williams,  V. Vanovschi,  
 S. Yeganeh,  S. R. Yost,  Z.-Q. You,  I. Y. Zhang,  X. Zhang,  Y. Zhao,  
 B. R. Brooks,  G. K. L. Chan,  D. M. Chipman,  C. J. Cramer,  
 W. A. Goddard III,  M. S. Gordon,  W. J. Hehre,  A. Klamt,  
 H. F. Schaefer III,  M. W. Schmidt,  C. D. Sherrill,  D. G. Truhlar,  
 A. Warshel,  X. Xu,  A. Aspuru-Guzik,  R. Baer,  A. T. Bell,  N. A. Besley,  
 J.-D. Chai,  A. Dreuw,  B. D. Dunietz,  T. R. Furlani,  S. R. Gwaltney,  
 C.-P. Hsu,  Y. Jung,  J. Kong,  D. S. Lambrecht,  W. Liang,  C. Ochsenfeld,  
 V. A. Rassolov,  L. V. Slipchenko,  J. E. Subotnik,  T. Van Voorhis,  
 J. M. Herbert,  A. I. Krylov,  P. M. W. Gill,  M. Head-Gordon

 Contributors to earlier versions of Q-Chem not listed above: 
 R. D. Adamson,  J. Baker,  E. F. C. Byrd,  A. K. Chakraborty,  C.-L. Cheng,  
 H. Dachsel,  R. J. Doerksen,  G. Hawkins,  A. Heyden,  S. Hirata,  
 G. Kedziora,  F. J. Keil,  C. Kelley,  P. P. Korambath,  W. Kurlancheek,  
 A. M. Lee,  M. S. Lee,  D. Liotard,  I. Lotan,  P. E. Maslen,  N. Nair,  
 D. Neuhauser,  R. Olson,  B. Peters,  J. Ritchie,  N. E. Schultz,  
 N. Shenvi,  A. C. Simmonett,  K. S. Thanthiriwatte,  Q. Wu,  W. Zhang

 Please cite Q-Chem as follows:
 Y. Shao et al., Mol. Phys. 113, 184-215 (2015)
 DOI: 10.1080/00268976.2014.952696

 Q-Chem 4.3.0 for Intel X86 EM64T Linux

 Parts of Q-Chem use Armadillo 5.200.1 (Boston Tea Smuggler).
 http://arma.sourceforge.net/

 Q-Chem begins on Fri Aug 23 17:21:15 2019  

Host: theochem
0

     Scratch files written to /tmp/qchem271555//

Checking the input file for inconsistencies... 	...done.

--------------------------------------------------------------
User input:
--------------------------------------------------------------
$comment
SP
problem with qchem: SP does not work, segmentation fault, therefore do a force calculation
$end

$molecule
0 1
C       1.1347247783     0.7017439555     0.0000000000
N       0.0000000000     1.4295621315     0.0000000000
C      -1.1347247783     0.7017439555    -0.0000005842
C      -1.1347247783    -0.7017439555     0.0000005842
H      -2.0777634575     1.2591065499     0.0000000000
H      -2.0777634575    -1.2591065499    -0.0000011610
N      -0.0000001094    -1.4295621315     0.0000000806
C       1.1347247783    -0.7017439555    -0.0000005842
H       2.0777634575    -1.2591065499     0.0000011610
H       2.0777634575     1.2591065499    -0.0000011610
$end

$rem
jobtype force
method adc(2)
adc_state_to_opt [1,1]
ee_singlets 3
cc_symmetry false
basis cc-pVDZ
mem_total 4000
mem_static 2000
$end



--------------------------------------------------------------
 Atom   4: ( -1.1347253089, -0.7017430680,  0.0000005741)
         ->( -1.1347253454, -0.7017430680,  0.0000002055)
 Atom   3: ( -1.1347242112,  0.7017448430, -0.0000004525)
         ->( -1.1347253454,  0.7017430680, -0.0000002055)
 Atom   8: (  1.1347242477, -0.7017448430, -0.0000005206)
         ->(  1.1347253454, -0.7017430680, -0.0000002055)
 Atom   1: (  1.1347253454,  0.7017430680,  0.0000002055)
         ->(  1.1347253454,  0.7017430680,  0.0000000000)
 Atom   7: ( -0.0000012093, -1.4295621315,  0.0000000338)
         ->( -0.0000011364, -1.4295621315,  0.0000002422)
 Atom   2: (  0.0000011364,  1.4295621315,  0.0000002422)
         ->(  0.0000000000,  1.4295621315,  0.0000000000)
 Atom   9: (  2.0777624909, -1.2591081750,  0.0000011989)
         ->(  2.0777624545, -1.2591081750,  0.0000001574)
 Atom  10: (  2.0777644605,  1.2591049248, -0.0000008685)
         ->(  2.0777624545,  1.2591081750, -0.0000001574)
 Atom   6: ( -2.0777644241, -1.2591049248, -0.0000012581)
         ->( -2.0777624545, -1.2591081750, -0.0000001574)
 Atom   5: ( -2.0777624545,  1.2591081750,  0.0000001574)
         ->( -2.0777624545,  1.2591081750,  0.0000000000)
 ----------------------------------------------------------------
             Standard Nuclear Orientation (Angstroms)
    I     Atom           X                Y                Z
 ----------------------------------------------------------------
    1      C       1.1347253454     0.7017430680     0.0000000000
    2      N       0.0000000000     1.4295621315     0.0000000000
    3      C      -1.1347253454     0.7017430680    -0.0000002055
    4      C      -1.1347253454    -0.7017430680     0.0000002055
    5      H      -2.0777624545     1.2591081750     0.0000000000
    6      H      -2.0777624545    -1.2591081750    -0.0000001574
    7      N      -0.0000011364    -1.4295621315     0.0000002422
    8      C       1.1347253454    -0.7017430680    -0.0000002055
    9      H       2.0777624545    -1.2591081750     0.0000001574
   10      H       2.0777624545     1.2591081750    -0.0000001574
 ----------------------------------------------------------------
 Molecular Point Group                 D2h   NOp =  8
 Largest Abelian Subgroup              D2h   NOp =  8
 Nuclear Repulsion Energy =   207.1107319044 hartrees
 There are       21 alpha and       21 beta electrons
 Requested basis set is cc-pVDZ
 There are 48 shells and 104 basis functions

 Total QAlloc Memory Limit   4000 MB
 Mega-Array Size      1956 MB
 MEM_STATIC part      2000 MB

                       Distance Matrix (Angstroms)
             C (  1)   N (  2)   C (  3)   C (  4)   H (  5)   H (  6)
   N (  2)  1.348081
   C (  3)  2.269451  1.348081
   C (  4)  2.668366  2.414552  1.403486
   H (  5)  3.260481  2.084743  1.095434  2.175835
   H (  6)  3.763644  3.397947  2.175835  1.095434  2.518216
   N (  7)  2.414553  2.859124  2.414552  1.348080  3.397946  2.084741
   C (  8)  1.403486  2.414552  2.668366  2.269451  3.763644  3.260481
   H (  9)  2.175835  3.397947  3.763644  3.260481  4.858992  4.155525
   H ( 10)  1.095434  2.084743  3.260481  3.763644  4.155525  4.858992
             N (  7)   C (  8)   H (  9)
   C (  8)  1.348082
   H (  9)  2.084744  1.095434
   H ( 10)  3.397948  2.175835  2.518216
 
 tim1(1): 
  1.255000000000003E-003
 tim1(2): 
  0.000000000000000E+000
 A cutoff of  1.0D-11 yielded   1157 shell pairs
 There are      5517 function pairs (      6192 Cartesian)
 
 -------------------------------------------------------
 OpenMP Integral Computing Module                       
 Release: version 1.0, May 2013, Q-Chem Inc. Pittsburgh 
 -------------------------------------------------------
 Integral Job Info:
 Integral job number is                      11
 Integral operator is                         1
 short-range coefficients                     0
 long-range coefficients              100000000
 Omega coefficients                           0
 if combine SR and LR in K                    0
 Integral screening is                        0
 Integral computing path is                   2
 max size of driver memory is            800000
 size of driver memory is                593474
 size of scratch memory is              3179904
 max col of scratch BK array               1296
 max len of scratch array in speh3          155
 max len of scratch index in speh4           18
 max int batch size is                      520
 min int batch size is                       52
 fixed nKL is                                52
 max L of basis functions is                  2
 order of int derivative is                   0
 number of shells is                         48
 number of basis is                         110
 number of cartesian basis is               110
 number of contracted shell pairs          1157
 number of primitive shell pairs           6317
 maxK2 (contraction) of shell pair           49
 max number of K2 of shell pair               1
 max number of CS2 of shell pair            154
 max number of PS2 of shell pair           1078
 mem total for path MDJ                   42562
 -------------------------------------------------------
 Smallest overlap matrix eigenvalue = 1.90E-03

 Scale SEOQF with 1.000000e-01/1.000000e-01/1.000000e+00

 Standard Electronic Orientation quadrupole field applied
 Nucleus-field energy     =     0.0000000051 hartrees
 Guess from superposition of atomic densities
 Warning:  Energy on first SCF cycle will be non-variational
 A restricted Hartree-Fock SCF calculation will be
 performed using Pulay DIIS extrapolation
 SCF converges when DIIS error is below 1.0E-08
 using 4 threads for integral computing 
 ---------------------------------------
  Cycle       Energy         DIIS Error
 ---------------------------------------
    1    -264.7844839794      8.19E-02
    2    -262.6274573918      6.05E-03
    3    -262.6897546274      2.40E-03
    4    -262.6971899563      1.03E-03
    5    -262.6989388508      1.87E-04
    6    -262.6990212131      6.62E-05
    7    -262.6990380968      2.44E-05
    8    -262.6990401251      3.94E-06
    9    -262.6990400977      7.29E-07
   10    -262.6990400809      1.41E-07
   11    -262.6990400774      2.52E-08
   12    -262.6990400773      3.80E-09 Convergence criterion met
 ---------------------------------------
 SCF time:  CPU 5.12 s  wall 1.28 s
 SCF   energy in the final basis set = -262.6990400773
 Total energy in the final basis set = -262.6990400773
================================================================================
|                                                                              |
|                                 A D C  M A N                                 |
|                                                                              |
 ------------------------------------------------------------------------------ 
|                                                                              |
| Components:                                                                  |
|                                                                              |
| - libvmm - 1.2-release                                                       |
|   Authors:                                                                   |
|   Evgeny Epifanovsky, Ilya Kaliman                                           |
|                                                                              |
| - libtensor - 2.4-trunk                                                      |
|   Authors:                                                                   |
|   Evgeny Epifanovsky, Michael Wormit, Dmitry Zuev, Sam Manzer                |
|                                                                              |
| - libwfa - 1.1-beta                                                          |
|   Authors:                                                                   |
|   Felix Plasser, Stefanie Baeppler, Benjamin Thomitzni, Michael Wormit       |
|                                                                              |
| - libadc - 1.0-beta                                                          |
|   Authors:                                                                   |
|   Michael Wormit, Philipp H. P. Harbach, Caroline Krauter, Dirk Rehn,        |
|   Matthias Schneider, Jan Wenzel                                             |
|                                                                              |
| - adcman - 2.5-trunk                                                         |
|   Authors:                                                                   |
|   Michael Wormit, Philipp H. P. Harbach, Caroline Krauter, Dirk Rehn,        |
|   Jan Wenzel, Jan-Michael Mewes, Daniel Lefrancois, Andreas Dreuw            |
|                                                                              |
| Authors of earlier versions of ADCMAN:                                       |
| Andreas Dreuw, Jan Hendrik Starcke, Dirk Rehn, Michael Wormit                |
|                                                                              |
================================================================================

 

--------------------------------------------------------------------------------
                                   HF Summary                                   
--------------------------------------------------------------------------------
  Energy:                                                 -262.6990400773 a.u.
  Dip. moment [a.u.]:                  [  -0.000011,   -0.000000,    0.000003]
  Total dipole [Debye]:                                               0.000030
  <r^2> [a.u.]:                        [ 191.703364,  197.609349,   27.243723]
  Total <r^2> [a.u.]:                                               416.556436
--------------------------------------------------------------------------------

--------------------------------------------------------------------------------
                                 MP(2) Summary                                  
--------------------------------------------------------------------------------
  Energy contribution:                                      -0.8546200603 a.u.
  Total energy:                                           -263.5536601376 a.u.
  Dip. moment [a.u.]:                  [   0.000004,   -0.000000,    0.000002]
  Total dipole [Debye]:                                               0.000012
  <r^2> [a.u.]:                        [ 192.147365,  197.213892,   26.821190]
  Total <r^2> [a.u.]:                                               416.182448
--------------------------------------------------------------------------------
  Starting Davidson ... 
--------------------------------------------------------------------------------
   It NVec Conv  Avg. Norm  Max. Norm  Conv. states           Remark
--------------------------------------------------------------------------------
         3    0  3.419e-01  6.469e-01  0.3458 n n n           Guess.
    1    6    0  2.168e-01  5.417e-01  0.1749 n n n           
    2    9    0  4.700e-02  1.213e-01  0.1608 n n n           
    3   12    0  2.134e-02  5.232e-02  0.1595 n n n           
    4   15    0  1.076e-02  2.862e-02  0.1592 n n n           
    5    6    0  4.728e-03  1.136e-02  0.1591 n n n           Subspace collapsed.
    6    9    0  6.608e-03  1.875e-02  0.1591 n n n           
    7   12    0  4.052e-03  1.188e-02  0.1591 n n n           
    8   15    0  2.684e-03  8.011e-03  0.1591 n n n           
    9    6    0  1.343e-03  4.016e-03  0.1591 n n n           Subspace collapsed.
   10    9    0  1.038e-03  3.112e-03  0.1591 n n n           
   11   12    0  5.178e-04  1.551e-03  0.1591 n n n           
   12   15    0  5.887e-04  1.765e-03  0.1591 n n n           
   13    6    0  2.325e-04  6.970e-04  0.1591 n n n           Subspace collapsed.
   14    9    0  3.876e-04  1.163e-03  0.1591 n n n           
   15   12    0  2.492e-04  7.475e-04  0.1591 n n n           
   16   15    1  2.048e-04  6.145e-04  0.1591 y n n           
   17    6    1  1.020e-04  3.061e-04  0.1591 y n n           Subspace collapsed.
   18    9    1  8.403e-05  2.521e-04  0.1591 y n n           
   19   12    2  3.613e-05  1.084e-04  0.1591 y y n           
   20   15    2  4.880e-05  1.464e-04  0.1591 y y n           
   21    6    2  2.378e-05  7.133e-05  0.1591 y y n           Subspace collapsed.
   22    9    2  2.258e-04  6.775e-04  0.1591 y y n           
   23   12    2  4.796e-02  1.439e-01  0.1591 y y n           
   24   15    2  2.041e-02  6.124e-02  0.1591 y n y           
   25    6    2  1.080e-02  3.241e-02  0.1591 y n y           Subspace collapsed.
   26    9    2  7.893e-03  2.368e-02  0.1591 y n y           
   27   12    2  3.152e-03  9.456e-03  0.1591 y n y           
   28   15    2  1.570e-03  4.709e-03  0.1591 y n y           
   29    6    2  7.273e-04  2.182e-03  0.1591 y n y           Subspace collapsed.
   30    9    2  3.988e-04  1.196e-03  0.1591 y n y           
   31   12    2  1.659e-04  4.977e-04  0.1591 y n y           
   32   15    2  1.138e-04  3.415e-04  0.1591 y n y           
   33    6    2  6.062e-05  1.818e-04  0.1591 y n y           Subspace collapsed.
   34    9    2  5.035e-05  1.511e-04  0.1591 y n y           
   35   12    2  2.699e-05  8.098e-05  0.1591 y n y           
   36   15    2  1.847e-05  5.541e-05  0.1591 y n y           
   37    6    2  1.012e-05  3.035e-05  0.1591 y n y           Subspace collapsed.
   38    9    2  9.207e-06  2.762e-05  0.1591 y n y           
   39   12    2  5.747e-06  1.724e-05  0.1591 y n y           
   40   15    2  4.651e-06  1.395e-05  0.1591 y n y           
   41    6    2  1.586e-06  4.757e-06  0.1591 y n y           Subspace collapsed.
   42    8    2  1.545e-06  4.634e-06  0.1591 y n y           
   43   10    2  8.899e-07  2.670e-06  0.1591 y n y           
   44   12    2  6.557e-07  1.967e-06  0.1591 y n y           
   45   14    2  4.675e-07  1.402e-06  0.1591 y n y           
   46   15    3  2.259e-07  6.777e-07  0.1591 y y y           Converged.
--------------------------------------------------------------------------------
  Davidson Summary: 
 ------------------------------------------------------------
  State  0: excitation energy =   0.1591 a.u.   (converged)
  State  1: excitation energy =   0.1818 a.u.   (converged)
  State  2: excitation energy =   0.1916 a.u.   (converged)
 ------------------------------------------------------------


oo: 0.8028316963
oo: 0.5710741594
oooo: 0.0000000000
ooov: -0.1772540635
oovv: -1.4715660321
ovov: -0.2804927769
ovvv: -0.1400976521
vvvv: 0.0000000000
ENERGY: -0.6955046689ENERGY: -0.6955046689 ------------------------------------------------------------------------------
            Enorm      Ldiff       Comment
 ------------------------------------------------------------------------------
     1     4.10e-01   5.48e-02     
     2     1.30e-01   8.69e-05     
     3     9.96e-02   2.24e-02     
     4     2.45e-02   1.29e-02     Switched to DIIS steps.
     5     5.63e-03   5.71e-04     
     6     1.68e-03   5.65e-04     
     7     3.67e-04   5.19e-05     
     8     1.72e-05   2.29e-05     
     9     2.66e-06   6.36e-07     
    10     2.39e-06   6.16e-08     
    11     9.66e-07   1.25e-08     
    12     7.44e-08   1.14e-08     
 ------------------------------------------------------------------------------
                                   Orbital response converged.

--------------------------------------------------------------------------------
                             Excited State Summary
--------------------------------------------------------------------------------
--------------------------------------------------------------------------------

  Excited state 1 (singlet, A)                                     [converged]
  ----------------------------------------------------------------------------
  Term symbol:  2 (1) A                                     R^2 =  8.79970e-14

  Total energy:                                           -263.3945447462 a.u.
  Excitation energy:                                               4.329750 eV

  Osc. strength:                                                      0.005909
  Trans. dip. moment [a.u.]:           [   0.000000,    0.000000,    0.236026]
  <i|r^2|0> [a.u.]:                    [   0.000001,   -0.000000,   -0.000000]

  V1^2 = 0.9128, V2^2 = 0.0872

  Important amplitudes:
      occ i      occ j       vir a       vir b          v   
    ---------------------------------------------------------
     20 (A) A               22 (A) A                  0.6701
     12 (A) A               22 (A) A                 -0.0490
    ---------------------------------------------------------
  ----------------------------------------------------------------------------


  Excited state 2 (singlet, A)                                     [converged]
  ----------------------------------------------------------------------------
  Term symbol:  3 (1) A                                     R^2 =  6.77720e-07

  Total energy:                                           -263.3718788725 a.u.
  Excitation energy:                                               4.946520 eV

  Osc. strength:                                                      0.000000
  Trans. dip. moment [a.u.]:           [   0.000000,   -0.000001,    0.000001]
  <i|r^2|0> [a.u.]:                    [  -0.000002,   -0.000000,   -0.000000]

  V1^2 = 0.8969, V2^2 = 0.1031

  Important amplitudes:
      occ i      occ j       vir a       vir b          v   
    ---------------------------------------------------------
     20 (A) A               23 (A) A                 -0.6652
     20 (A) A               44 (A) A                 -0.0567
    ---------------------------------------------------------
  ----------------------------------------------------------------------------


  Excited state 3 (singlet, A)                                     [converged]
  ----------------------------------------------------------------------------
  Term symbol:  4 (1) A                                     R^2 =  6.15414e-12

  Total energy:                                           -263.3620167399 a.u.
  Excitation energy:                                               5.214882 eV

  Osc. strength:                                                      0.069039
  Trans. dip. moment [a.u.]:           [   0.735100,    0.000001,   -0.000000]
  <i|r^2|0> [a.u.]:                    [  -0.000000,    0.000000,   -0.000001]

  V1^2 = 0.9018, V2^2 = 0.0982

  Important amplitudes:
      occ i      occ j       vir a       vir b          v   
    ---------------------------------------------------------
     21 (A) A               22 (A) A                  0.6079
     19 (A) A               23 (A) A                  0.2733
    ---------------------------------------------------------
  ----------------------------------------------------------------------------


--------------------------------------------------------------------------------
  Time of ADC calculation:  CPU 504.57 s  wall 323.44 s
================================================================================
 
 --------------------------------------------------------------
             Orbital Energies (a.u.) and Symmetries
 --------------------------------------------------------------
 
 Alpha MOs, Restricted
 -- Occupied --                  
-15.600 -15.600 -11.293 -11.293 -11.292 -11.292  -1.300  -1.215
  1 B2u   1 Ag    1 B3u   2 Ag    2 B2u   1 B1g   3 Ag    3 B2u                
 -1.048  -0.900  -0.882  -0.720  -0.696  -0.672  -0.603  -0.567
  2 B3u   4 Ag    2 B1g   5 Ag    3 B3u   4 B2u   4 B3u   1 B1u                
 -0.544  -0.501  -0.430  -0.412  -0.356
  3 B1g   5 B2u   1 B3g   6 Ag    1 B2g                                        
 -- Virtual --                   
  0.088   0.119   0.194   0.208   0.240   0.245   0.324   0.327
  2 B1u   1 Au    7 Ag    5 B3u   6 B2u   4 B1g   2 B3g   8 Ag                 
  0.431   0.454   0.458   0.570   0.600   0.629   0.636   0.657
  6 B3u   7 B2u   5 B1g   8 B2u   6 B1g   9 Ag    7 B3u   3 B1u                
  0.695   0.705   0.706   0.751   0.766   0.773   0.801   0.845
  8 B3u   2 B2g  10 Ag    3 B3g  11 Ag    9 B2u   2 Au    7 B1g                
  0.909   0.922   0.938   0.977   1.072   1.073   1.074   1.099
  9 B3u   8 B1g  10 B2u  12 Ag    4 B1u  11 B2u  13 Ag   12 B2u                
  1.103   1.138   1.163   1.181   1.188   1.254   1.266   1.315
  5 B1u  10 B3u   4 B3g   9 B1g   3 B2g   4 B2g  13 B2u  10 B1g                
  1.371   1.390   1.406   1.418   1.516   1.574   1.624   1.735
 11 B3u   3 Au    5 B3g   6 B1u  14 Ag   11 B1g  15 Ag   12 B3u                
  1.797   1.812   1.821   1.831   1.875   1.897   1.897   1.902
 16 Ag    4 Au   14 B2u  12 B1g  17 Ag   13 B3u   7 B1u  15 B2u                
  1.947   1.959   2.007   2.104   2.107   2.195   2.197   2.243
  6 B3g   5 B2g  16 B2u   7 B3g  14 B3u  17 B2u  18 Ag   13 B1g                
  2.258   2.327   2.438   2.446   2.510   2.510   2.534   2.678
  5 Au   15 B3u   8 B1u  14 B1g  19 Ag   18 B2u   6 B2g   8 B3g                
  2.771   2.814   2.834   2.846   2.865   3.103   3.140   3.163
 16 B3u  15 B1g   6 Au   19 B2u  20 Ag   17 B3u  21 Ag   20 B2u                
  3.205   3.276   3.713
 16 B1g  17 B1g  21 B2u                                                        
 
 Beta MOs, Restricted
 -- Occupied --                  
-15.600 -15.600 -11.293 -11.293 -11.292 -11.292  -1.300  -1.215
  1 B2u   1 Ag    1 B3u   2 Ag    2 B2u   1 B1g   3 Ag    3 B2u                
 -1.048  -0.900  -0.882  -0.720  -0.696  -0.672  -0.603  -0.567
  2 B3u   4 Ag    2 B1g   5 Ag    3 B3u   4 B2u   4 B3u   1 B1u                
 -0.544  -0.501  -0.430  -0.412  -0.356
  3 B1g   5 B2u   1 B3g   6 Ag    1 B2g                                        
 -- Virtual --                   
  0.088   0.119   0.194   0.208   0.240   0.245   0.324   0.327
  2 B1u   1 Au    7 Ag    5 B3u   6 B2u   4 B1g   2 B3g   8 Ag                 
  0.431   0.454   0.458   0.570   0.600   0.629   0.636   0.657
  6 B3u   7 B2u   5 B1g   8 B2u   6 B1g   9 Ag    7 B3u   3 B1u                
  0.695   0.705   0.706   0.751   0.766   0.773   0.801   0.845
  8 B3u   2 B2g  10 Ag    3 B3g  11 Ag    9 B2u   2 Au    7 B1g                
  0.909   0.922   0.938   0.977   1.072   1.073   1.074   1.099
  9 B3u   8 B1g  10 B2u  12 Ag    4 B1u  11 B2u  13 Ag   12 B2u                
  1.103   1.138   1.163   1.181   1.188   1.254   1.266   1.315
  5 B1u  10 B3u   4 B3g   9 B1g   3 B2g   4 B2g  13 B2u  10 B1g                
  1.371   1.390   1.406   1.418   1.516   1.574   1.624   1.735
 11 B3u   3 Au    5 B3g   6 B1u  14 Ag   11 B1g  15 Ag   12 B3u                
  1.797   1.812   1.821   1.831   1.875   1.897   1.897   1.902
 16 Ag    4 Au   14 B2u  12 B1g  17 Ag   13 B3u   7 B1u  15 B2u                
  1.947   1.959   2.007   2.104   2.107   2.195   2.197   2.243
  6 B3g   5 B2g  16 B2u   7 B3g  14 B3u  17 B2u  18 Ag   13 B1g                
  2.258   2.327   2.438   2.446   2.510   2.510   2.534   2.678
  5 Au   15 B3u   8 B1u  14 B1g  19 Ag   18 B2u   6 B2g   8 B3g                
  2.771   2.814   2.834   2.846   2.865   3.103   3.140   3.163
 16 B3u  15 B1g   6 Au   19 B2u  20 Ag   17 B3u  21 Ag   20 B2u                
  3.205   3.276   3.713
 16 B1g  17 B1g  21 B2u                                                        
 --------------------------------------------------------------
 
          Ground-State Mulliken Net Atomic Charges

     Atom                 Charge (a.u.)
  ----------------------------------------
      1 C                     0.036188
      2 N                    -0.189188
      3 C                     0.036209
      4 C                     0.036215
      5 H                     0.058396
      6 H                     0.058393
      7 N                    -0.189188
      8 C                     0.036182
      9 H                     0.058399
     10 H                     0.058395
  ----------------------------------------
  Sum of atomic charges =     0.000000

 -----------------------------------------------------------------
                    Cartesian Multipole Moments
 -----------------------------------------------------------------
    Charge (ESU x 10^10)
                 0.0000
    Dipole Moment (Debye)
         X      -0.0000      Y       0.0000      Z      -0.0000
       Tot       0.0000
    Quadrupole Moments (Debye-Ang)
        XX     -27.4304     XY      -0.0000     YY     -37.3951
        XZ      -0.0000     YZ       0.0000     ZZ     -37.6340
    Octopole Moments (Debye-Ang^2)
       XXX      -0.0001    XXY       0.0000    XYY       0.0000
       YYY       0.0000    XXZ      -0.0000    XYZ       0.0000
       YYZ      -0.0000    XZZ       0.0000    YZZ       0.0000
       ZZZ      -0.0000
    Hexadecapole Moments (Debye-Ang^3)
      XXXX    -234.2826   XXXY      -0.0001   XXYY     -69.4640
      XYYY      -0.0002   YYYY    -276.4053   XXXZ       0.0000
      XXYZ       0.0000   XYYZ      -0.0000   YYYZ       0.0000
      XXZZ     -56.7724   XYZZ      -0.0001   YYZZ     -51.7772
      XZZZ       0.0000   YZZZ       0.0000   ZZZZ     -39.0736
 -----------------------------------------------------------------
 DrvMan completing analytic gradient of the correlated energy

 Entering direct/semidirect transformation code...
          The following integrals will be calculated:
                        (11|11)
 where index 1 (alpha) is the lowest    104 levels 
       index 1 (beta)  is the lowest    104 levels 
 
 Correlated dipole moment
            1
    1  -0.0000037
    2   0.0000000
    3  -0.0000023
 Nuclear Gradient
             1             2             3             4             5
    1   -7.79696526   -0.00010894    7.79728354    7.79592399    4.12657934
    2   -3.27682881  -16.73773524   -3.27674001    3.27690323   -2.49949325
    3   -0.00020461   -0.00008101    0.00041692   -0.00036426    0.00000461
             6             7             8             9            10
    1    4.12662096    0.00212693   -7.79832480   -4.12654706   -4.12658869
    2    2.49950332   16.73773523    3.27666559    2.49951212   -2.49952219
    3    0.00000673   -0.00015916    0.00038970   -0.00000950    0.00000058
 One-electron Gradient
             1             2             3             4             5
    1    7.77762031    0.00010985   -7.77793987   -7.77657815   -4.12301036
    2    3.26990585   16.74810576    3.26981671   -3.26998025    2.50543082
    3    0.00020486    0.00008118   -0.00041744    0.00036467   -0.00000458
             6             7             8             9            10
    1   -4.12305196   -0.00212961    7.77898202    4.12297808    4.12301967
    2   -2.50544086  -16.74810576   -3.26974231   -2.50544969    2.50545972
    3   -0.00000682    0.00015946   -0.00039031    0.00000958   -0.00000061
 Energy read as -263.394544746
 Full Analytical Gradient: (in a.u., or Hartree/Bohr)
             1             2             3             4             5
    1   -0.01934495    0.00000092    0.01934367    0.01934584    0.00356897
    2   -0.00692296    0.01037052   -0.00692331    0.00692298    0.00593757
    3    0.00000025    0.00000017   -0.00000053    0.00000040    0.00000003
             6             7             8             9            10
    1    0.00356900   -0.00000268   -0.01934278   -0.00356898   -0.00356901
    2   -0.00593754   -0.01037053    0.00692328   -0.00593756    0.00593753
    3   -0.00000008    0.00000031   -0.00000061    0.00000008   -0.00000003
 Gradient time:  CPU 96.87 s  wall 95.06 s
Archival summary:
1\1\theochem\JobtypUnspecified\ProcedureUnspecified\BasisUnspecified\244\ehrmaier\FriAug2317:28:162019FriAug2317:28:162019\0\\#,JobtypUnspecified,ProcedureUnspecified,BasisUnspecified,\\0,1\N\C,1,1.34808\H,2,1.09543,1,116.739\C,1,1.34808,2,114.647,3,-180,0\H,4,1.09543,1,116.739,2,-180,0\C,4,1.40349,1,122.676,2,-0,0\H,6,1.09543,4,120.584,1,180,0\N,6,1.34808,4,122.676,1,0,0\C,8,1.34808,6,114.647,4,-0,0\H,9,1.09543,8,116.739,6,-180,0\\HF=-262.69904\\@

 Total job time:  421.17s(wall), 608.68s(cpu) 
 Fri Aug 23 17:28:16 2019

        *************************************************************
        *                                                           *
        *  Thank you very much for using Q-Chem.  Have a nice day.  *
        *                                                           *
        *************************************************************


 
User input: 2 of 9 
 
/home/rehn/Q-Chem/exe/qcprog.exe .test.inp.271555.qcin.2 /tmp/qchem271555/

                  Welcome to Q-Chem
     A Quantum Leap Into The Future Of Chemistry


 Q-Chem 4.3, Q-Chem, Inc., Pleasanton, CA (2015)

 Y. Shao,  Z. Gan,  E. Epifanovsky,  A. T. B. Gilbert,  M. Wormit,  
 J. Kussmann,  A. W. Lange,  A. Behn,  J. Deng,  X. Feng,  D. Ghosh,  
 M. Goldey,  P. R. Horn,  L. D. Jacobson,  I. Kaliman,  R. Z. Khaliullin,  
 T. Kus,  A. Landau,  J. Liu,  E. I. Proynov,  Y. M. Rhee,  R. M. Richard,  
 M. A. Rohrdanz,  R. P. Steele,  E. J. Sundstrom,  H. L. Woodcock III,  
 P. M. Zimmerman,  D. Zuev,  B. Albrecht,  E. Alguire,  B. Austin,  
 S. A. Baeppler,  G. J. O. Beran,  Y. A. Bernard,  E. Berquist,  
 K. Brandhorst,  K. B. Bravaya,  S. T. Brown,  D. Casanova,  C.-M. Chang,  
 Y. Chen,  S. H. Chien,  K. D. Closser,  D. L. Crittenden,  M. Diedenhofen,  
 R. A. DiStasio Jr.,  H. Do,  A. D. Dutoi,  R. G. Edgar,  P.-T. Fang,  
 S. Fatehi,  Q. Feng,  L. Fusti-Molnar,  A. Ghysels,  
 A. Golubeva-Zadorozhnaya,  J. Gomes,  A. Gunina,  M. W. D. Hanson-Heine,  
 P. H. P. Harbach,  A. W. Hauser,  E. G. Hohenstein,  Z. C. Holden,  K. Hui,  
 T.-C. Jagau,  H. Ji,  B. Kaduk,  K. Khistyaev,  Jaehoon Kim,  Jihan Kim,  
 R. A. King,  P. Klunzinger,  D. Kosenkov,  T. Kowalczyk,  C. M. Krauter,  
 K. U. Lao,  A. Laurent,  K. V. Lawler,  S. Lehtola,  S. V. Levchenko,  
 C. Y. Lin,  Y.-S. Lin,  F. Liu,  E. Livshits,  R. C. Lochan,  A. Luenser,  
 P. Manohar,  S. F. Manzer,  S.-P. Mao,  N. Mardirossian,  A. V. Marenich,  
 L. A. Martinez-Martinez,  S. A. Maurer,  N. J. Mayhall,  K. Nanda,  
 C. M. Oana,  R. Olivares-Amaya,  D. P. O'Neill,  J. A. Parkhill,  
 T. M. Perrine,  R. Peverati,  P. A. Pieniazek,  F. Plasser,  A. Prociuk,  
 D. R. Rehn,  E. Rosta,  N. J. Russ,  N. Sergueev,  S. M. Sharada,  
 S. Sharma,  D. W. Small,  A. Sodt,  T. Stauch,  T. Stein,  D. Stuck,  
 Y.-C. Su,  A. J. W. Thom,  T. Tsuchimochi,  L. Vogt,  O. Vydrov,  T. Wang,  
 M. A. Watson,  J. Wenzel,  A. White,  C. F. Williams,  V. Vanovschi,  
 S. Yeganeh,  S. R. Yost,  Z.-Q. You,  I. Y. Zhang,  X. Zhang,  Y. Zhao,  
 B. R. Brooks,  G. K. L. Chan,  D. M. Chipman,  C. J. Cramer,  
 W. A. Goddard III,  M. S. Gordon,  W. J. Hehre,  A. Klamt,  
 H. F. Schaefer III,  M. W. Schmidt,  C. D. Sherrill,  D. G. Truhlar,  
 A. Warshel,  X. Xu,  A. Aspuru-Guzik,  R. Baer,  A. T. Bell,  N. A. Besley,  
 J.-D. Chai,  A. Dreuw,  B. D. Dunietz,  T. R. Furlani,  S. R. Gwaltney,  
 C.-P. Hsu,  Y. Jung,  J. Kong,  D. S. Lambrecht,  W. Liang,  C. Ochsenfeld,  
 V. A. Rassolov,  L. V. Slipchenko,  J. E. Subotnik,  T. Van Voorhis,  
 J. M. Herbert,  A. I. Krylov,  P. M. W. Gill,  M. Head-Gordon

 Contributors to earlier versions of Q-Chem not listed above: 
 R. D. Adamson,  J. Baker,  E. F. C. Byrd,  A. K. Chakraborty,  C.-L. Cheng,  
 H. Dachsel,  R. J. Doerksen,  G. Hawkins,  A. Heyden,  S. Hirata,  
 G. Kedziora,  F. J. Keil,  C. Kelley,  P. P. Korambath,  W. Kurlancheek,  
 A. M. Lee,  M. S. Lee,  D. Liotard,  I. Lotan,  P. E. Maslen,  N. Nair,  
 D. Neuhauser,  R. Olson,  B. Peters,  J. Ritchie,  N. E. Schultz,  
 N. Shenvi,  A. C. Simmonett,  K. S. Thanthiriwatte,  Q. Wu,  W. Zhang

 Please cite Q-Chem as follows:
 Y. Shao et al., Mol. Phys. 113, 184-215 (2015)
 DOI: 10.1080/00268976.2014.952696

 Q-Chem 4.3.0 for Intel X86 EM64T Linux

 Parts of Q-Chem use Armadillo 5.200.1 (Boston Tea Smuggler).
 http://arma.sourceforge.net/

 Q-Chem begins on Fri Aug 23 17:28:16 2019  

Host: theochem
0

     Scratch files written to /tmp/qchem271555//

Checking the input file for inconsistencies... 	...done.

--------------------------------------------------------------
User input:
--------------------------------------------------------------
$comment
FORCE 0
$end

$molecule
read
$end



$rem
jobtype FORCE
basis cc-pVDZ
method mp2
cc_symmetry false
mem_total 4000
mem_static 2000
SCF_GUESS READ                                                                                                          
$end



--------------------------------------------------------------
 Atom   4: ( -1.1347253089, -0.7017430680,  0.0000005741)
         ->( -1.1347253454, -0.7017430680,  0.0000002055)
 Atom   3: ( -1.1347242112,  0.7017448430, -0.0000004525)
         ->( -1.1347253454,  0.7017430680, -0.0000002055)
 Atom   8: (  1.1347242477, -0.7017448430, -0.0000005206)
         ->(  1.1347253454, -0.7017430680, -0.0000002055)
 Atom   1: (  1.1347253454,  0.7017430680,  0.0000002055)
         ->(  1.1347253454,  0.7017430680,  0.0000000000)
 Atom   7: ( -0.0000012093, -1.4295621315,  0.0000000338)
         ->( -0.0000011364, -1.4295621315,  0.0000002422)
 Atom   2: (  0.0000011364,  1.4295621315,  0.0000002422)
         ->(  0.0000000000,  1.4295621315,  0.0000000000)
 Atom   9: (  2.0777624909, -1.2591081750,  0.0000011989)
         ->(  2.0777624545, -1.2591081750,  0.0000001574)
 Atom  10: (  2.0777644605,  1.2591049248, -0.0000008685)
         ->(  2.0777624545,  1.2591081750, -0.0000001574)
 Atom   6: ( -2.0777644241, -1.2591049248, -0.0000012581)
         ->( -2.0777624545, -1.2591081750, -0.0000001574)
 Atom   5: ( -2.0777624545,  1.2591081750,  0.0000001574)
         ->( -2.0777624545,  1.2591081750,  0.0000000000)
 ----------------------------------------------------------------
             Standard Nuclear Orientation (Angstroms)
    I     Atom           X                Y                Z
 ----------------------------------------------------------------
    1      C       1.1347253454     0.7017430680     0.0000000000
    2      N       0.0000000000     1.4295621315     0.0000000000
    3      C      -1.1347253454     0.7017430680    -0.0000002055
    4      C      -1.1347253454    -0.7017430680     0.0000002055
    5      H      -2.0777624545     1.2591081750     0.0000000000
    6      H      -2.0777624545    -1.2591081750    -0.0000001574
    7      N      -0.0000011364    -1.4295621315     0.0000002422
    8      C       1.1347253454    -0.7017430680    -0.0000002055
    9      H       2.0777624545    -1.2591081750     0.0000001574
   10      H       2.0777624545     1.2591081750    -0.0000001574
 ----------------------------------------------------------------
 Molecular Point Group                 D2h   NOp =  8
 Largest Abelian Subgroup              D2h   NOp =  8
 Nuclear Repulsion Energy =   207.1107319044 hartrees
 There are       21 alpha and       21 beta electrons
 Requested basis set is cc-pVDZ
 There are 48 shells and 104 basis functions

 Total QAlloc Memory Limit   4000 MB
 Mega-Array Size      1956 MB
 MEM_STATIC part      2000 MB

                       Distance Matrix (Angstroms)
             C (  1)   N (  2)   C (  3)   C (  4)   H (  5)   H (  6)
   N (  2)  1.348081
   C (  3)  2.269451  1.348081
   C (  4)  2.668366  2.414552  1.403486
   H (  5)  3.260481  2.084743  1.095434  2.175835
   H (  6)  3.763644  3.397947  2.175835  1.095434  2.518216
   N (  7)  2.414553  2.859124  2.414552  1.348080  3.397946  2.084741
   C (  8)  1.403486  2.414552  2.668366  2.269451  3.763644  3.260481
   H (  9)  2.175835  3.397947  3.763644  3.260481  4.858992  4.155525
   H ( 10)  1.095434  2.084743  3.260481  3.763644  4.155525  4.858992
             N (  7)   C (  8)   H (  9)
   C (  8)  1.348082
   H (  9)  2.084744  1.095434
   H ( 10)  3.397948  2.175835  2.518216
 
 tim1(1): 
  1.271999999999999E-003
 tim1(2): 
  0.000000000000000E+000
 A cutoff of  1.0D-11 yielded   1157 shell pairs
 There are      5517 function pairs (      6192 Cartesian)
 
 -------------------------------------------------------
 OpenMP Integral Computing Module                       
 Release: version 1.0, May 2013, Q-Chem Inc. Pittsburgh 
 -------------------------------------------------------
 Integral Job Info:
 Integral job number is                      11
 Integral operator is                         1
 short-range coefficients                     0
 long-range coefficients              100000000
 Omega coefficients                           0
 if combine SR and LR in K                    0
 Integral screening is                        0
 Integral computing path is                   2
 max size of driver memory is            800000
 size of driver memory is                593474
 size of scratch memory is              3179904
 max col of scratch BK array               1296
 max len of scratch array in speh3          155
 max len of scratch index in speh4           18
 max int batch size is                      520
 min int batch size is                       52
 fixed nKL is                                52
 max L of basis functions is                  2
 order of int derivative is                   0
 number of shells is                         48
 number of basis is                         110
 number of cartesian basis is               110
 number of contracted shell pairs          1157
 number of primitive shell pairs           6317
 maxK2 (contraction) of shell pair           49
 max number of K2 of shell pair               1
 max number of CS2 of shell pair            154
 max number of PS2 of shell pair           1078
 mem total for path MDJ                   42562
 -------------------------------------------------------
 Smallest overlap matrix eigenvalue = 1.90E-03

 Scale SEOQF with 1.000000e-01/1.000000e-01/1.000000e+00

 Standard Electronic Orientation quadrupole field applied
 Nucleus-field energy     =     0.0000000051 hartrees
 Guess MOs from SCF MO coefficient file
 Reading MOs from coefficient file
 Reading MOs from coefficient file
 A restricted Hartree-Fock SCF calculation will be
 performed using Pulay DIIS extrapolation
 SCF converges when DIIS error is below 1.0E-08
 using 4 threads for integral computing 
 ---------------------------------------
  Cycle       Energy         DIIS Error
 ---------------------------------------
    1    -262.6990400773      5.02E-10
    2    -262.6990400773      1.88E-10 Convergence criterion met
 ---------------------------------------
 SCF time:  CPU 0.92 s  wall 0.23 s
 SCF   energy in the final basis set = -262.6990400773
 Total energy in the final basis set = -262.6990400773
 
 Components of the MP2 correlation energy:
        aaaa  correlation energy =        -0.1160895523 au
        abab  correlation energy =        -0.6224409549 au
        bbbb  correlation energy =        -0.1160895523 au
        non-Brillouin singles    =        -0.0000000000 au

 Total  MP2   correlation energy =        -0.8546200594 au
        MP2         total energy =      -263.5536601367 au

  Entering Z-vector solver.
   1         0           1      0.000339    0.000339
   2         0           1      0.000081    0.000081
   3         0           1      0.000037    0.000037
   4         0           1      0.000011    0.000011
   5         0           1      0.000003    0.000003
   6         1           0      0.000000    0.000000    Roots Converged
 
 --------------------------------------------------------------
             Orbital Energies (a.u.) and Symmetries
 --------------------------------------------------------------
 
 Alpha MOs, Restricted
 -- Occupied --                  
-15.600 -15.600 -11.293 -11.293 -11.292 -11.292  -1.300  -1.215
  1 B2u   1 Ag    1 B3u   2 Ag    2 B2u   1 B1g   3 Ag    3 B2u                
 -1.048  -0.900  -0.882  -0.720  -0.696  -0.672  -0.603  -0.567
  2 B3u   4 Ag    2 B1g   5 Ag    3 B3u   4 B2u   4 B3u   1 B1u                
 -0.544  -0.501  -0.430  -0.412  -0.356
  3 B1g   5 B2u   1 B3g   6 Ag    1 B2g                                        
 -- Virtual --                   
  0.088   0.119   0.194   0.208   0.240   0.245   0.324   0.327
  2 B1u   1 Au    7 Ag    5 B3u   6 B2u   4 B1g   2 B3g   8 Ag                 
  0.431   0.454   0.458   0.570   0.600   0.629   0.636   0.657
  6 B3u   7 B2u   5 B1g   8 B2u   6 B1g   9 Ag    7 B3u   3 B1u                
  0.695   0.705   0.706   0.751   0.766   0.773   0.801   0.845
  8 B3u   2 B2g  10 Ag    3 B3g  11 Ag    9 B2u   2 Au    7 B1g                
  0.909   0.922   0.938   0.977   1.072   1.073   1.074   1.099
  9 B3u   8 B1g  10 B2u  12 Ag    4 B1u  11 B2u  13 Ag   12 B2u                
  1.103   1.138   1.163   1.181   1.188   1.254   1.266   1.315
  5 B1u  10 B3u   4 B3g   9 B1g   3 B2g   4 B2g  13 B2u  10 B1g                
  1.371   1.390   1.406   1.418   1.516   1.574   1.624   1.735
 11 B3u   3 Au    5 B3g   6 B1u  14 Ag   11 B1g  15 Ag   12 B3u                
  1.797   1.812   1.821   1.831   1.875   1.897   1.897   1.902
 16 Ag    4 Au   14 B2u  12 B1g  17 Ag   13 B3u   7 B1u  15 B2u                
  1.947   1.959   2.007   2.104   2.107   2.195   2.197   2.243
  6 B3g   5 B2g  16 B2u   7 B3g  14 B3u  17 B2u  18 Ag   13 B1g                
  2.258   2.327   2.438   2.446   2.510   2.510   2.534   2.678
  5 Au   15 B3u   8 B1u  14 B1g  19 Ag   18 B2u   6 B2g   8 B3g                
  2.771   2.814   2.834   2.846   2.865   3.103   3.140   3.163
 16 B3u  15 B1g   6 Au   19 B2u  20 Ag   17 B3u  21 Ag   20 B2u                
  3.205   3.276   3.713
 16 B1g  17 B1g  21 B2u                                                        
 
 Beta MOs, Restricted
 -- Occupied --                  
-15.600 -15.600 -11.293 -11.293 -11.292 -11.292  -1.300  -1.215
  1 B2u   1 Ag    1 B3u   2 Ag    2 B2u   1 B1g   3 Ag    3 B2u                
 -1.048  -0.900  -0.882  -0.720  -0.696  -0.672  -0.603  -0.567
  2 B3u   4 Ag    2 B1g   5 Ag    3 B3u   4 B2u   4 B3u   1 B1u                
 -0.544  -0.501  -0.430  -0.412  -0.356
  3 B1g   5 B2u   1 B3g   6 Ag    1 B2g                                        
 -- Virtual --                   
  0.088   0.119   0.194   0.208   0.240   0.245   0.324   0.327
  2 B1u   1 Au    7 Ag    5 B3u   6 B2u   4 B1g   2 B3g   8 Ag                 
  0.431   0.454   0.458   0.570   0.600   0.629   0.636   0.657
  6 B3u   7 B2u   5 B1g   8 B2u   6 B1g   9 Ag    7 B3u   3 B1u                
  0.695   0.705   0.706   0.751   0.766   0.773   0.801   0.845
  8 B3u   2 B2g  10 Ag    3 B3g  11 Ag    9 B2u   2 Au    7 B1g                
  0.909   0.922   0.938   0.977   1.072   1.073   1.074   1.099
  9 B3u   8 B1g  10 B2u  12 Ag    4 B1u  11 B2u  13 Ag   12 B2u                
  1.103   1.138   1.163   1.181   1.188   1.254   1.266   1.315
  5 B1u  10 B3u   4 B3g   9 B1g   3 B2g   4 B2g  13 B2u  10 B1g                
  1.371   1.390   1.406   1.418   1.516   1.574   1.624   1.735
 11 B3u   3 Au    5 B3g   6 B1u  14 Ag   11 B1g  15 Ag   12 B3u                
  1.797   1.812   1.821   1.831   1.875   1.897   1.897   1.902
 16 Ag    4 Au   14 B2u  12 B1g  17 Ag   13 B3u   7 B1u  15 B2u                
  1.947   1.959   2.007   2.104   2.107   2.195   2.197   2.243
  6 B3g   5 B2g  16 B2u   7 B3g  14 B3u  17 B2u  18 Ag   13 B1g                
  2.258   2.327   2.438   2.446   2.510   2.510   2.534   2.678
  5 Au   15 B3u   8 B1u  14 B1g  19 Ag   18 B2u   6 B2g   8 B3g                
  2.771   2.814   2.834   2.846   2.865   3.103   3.140   3.163
 16 B3u  15 B1g   6 Au   19 B2u  20 Ag   17 B3u  21 Ag   20 B2u                
  3.205   3.276   3.713
 16 B1g  17 B1g  21 B2u                                                        
 --------------------------------------------------------------
 
          Ground-State Mulliken Net Atomic Charges

     Atom                 Charge (a.u.)
  ----------------------------------------
      1 C                     0.054042
      2 N                    -0.193442
      3 C                     0.054060
      4 C                     0.054069
      5 H                     0.042671
      6 H                     0.042667
      7 N                    -0.193442
      8 C                     0.054033
      9 H                     0.042673
     10 H                     0.042669
  ----------------------------------------
  Sum of atomic charges =     0.000000

 -----------------------------------------------------------------
                    Cartesian Multipole Moments
 -----------------------------------------------------------------
    Charge (ESU x 10^10)
                 0.0000
    Dipole Moment (Debye)
         X      -0.0000      Y       0.0000      Z      -0.0000
       Tot       0.0000
    Quadrupole Moments (Debye-Ang)
        XX     -27.6005     XY      -0.0000     YY     -41.1198
        XZ      -0.0000     YZ       0.0000     ZZ     -36.0678
    Octopole Moments (Debye-Ang^2)
       XXX      -0.0001    XXY       0.0000    XYY       0.0000
       YYY       0.0000    XXZ      -0.0000    XYZ       0.0000
       YYZ      -0.0000    XZZ       0.0000    YZZ       0.0000
       ZZZ      -0.0000
    Hexadecapole Moments (Debye-Ang^3)
      XXXX    -238.2978   XXXY       0.0000   XXYY     -73.0795
      XYYY      -0.0002   YYYY    -300.3308   XXXZ       0.0000
      XXYZ       0.0000   XYYZ      -0.0000   YYYZ       0.0000
      XXZZ     -54.4073   XYZZ      -0.0000   YYZZ     -50.7457
      XZZZ       0.0000   YZZZ       0.0000   ZZZZ     -36.3668
 -----------------------------------------------------------------
 DrvMan is completing analytic gradient of the MP2 energy
 MP2 relaxed dipole moment
            1
    1  -0.0000041
    2   0.0000000
    3  -0.0000023
	Magnitude:	 0.000 au	 0.000 Debye
 MP2 energy read as -263.553660
 Full Analytical Gradient of MP2 Energy (in au.)
             1             2             3             4             5
    1    0.00001960   -0.00000014   -0.00001949   -0.00001889   -0.00000164
    2   -0.00000588    0.00002574   -0.00000586    0.00000596   -0.00000572
    3    0.00000022    0.00000022   -0.00000057    0.00000032    0.00000005
             6             7             8             9            10
    1   -0.00000160   -0.00000122    0.00002020    0.00000161    0.00000158
    2    0.00000577   -0.00002574    0.00000579    0.00000575   -0.00000580
    3   -0.00000007    0.00000045   -0.00000066    0.00000007   -0.00000004
 Gradient time:  CPU 0.45 s  wall 0.11 s
Archival summary:
1\1\theochem\JobtypUnspecified\MP2\BasisUnspecified\244\ehrmaier\FriAug2317:28:262019FriAug2317:28:262019\0\\#,JobtypUnspecified,MP2,BasisUnspecified,\\0,1\N\C,1,1.34808\H,2,1.09543,1,116.739\C,1,1.34808,2,114.647,3,-180,0\H,4,1.09543,1,116.739,2,-180,0\C,4,1.40349,1,122.676,2,-0,0\H,6,1.09543,4,120.584,1,180,0\N,6,1.34808,4,122.676,1,0,0\C,8,1.34808,6,114.647,4,-0,0\H,9,1.09543,8,116.739,6,-180,0\\HF=-262.69904\MP2=-263.55366\\@

 Total job time:  9.85s(wall), 26.10s(cpu) 
 Fri Aug 23 17:28:26 2019

        *************************************************************
        *                                                           *
        *  Thank you very much for using Q-Chem.  Have a nice day.  *
        *                                                           *
        *************************************************************


 
User input: 3 of 9 
 
/home/rehn/Q-Chem/exe/qcprog.exe .test.inp.271555.qcin.3 /tmp/qchem271555/

                  Welcome to Q-Chem
     A Quantum Leap Into The Future Of Chemistry


 Q-Chem 4.3, Q-Chem, Inc., Pleasanton, CA (2015)

 Y. Shao,  Z. Gan,  E. Epifanovsky,  A. T. B. Gilbert,  M. Wormit,  
 J. Kussmann,  A. W. Lange,  A. Behn,  J. Deng,  X. Feng,  D. Ghosh,  
 M. Goldey,  P. R. Horn,  L. D. Jacobson,  I. Kaliman,  R. Z. Khaliullin,  
 T. Kus,  A. Landau,  J. Liu,  E. I. Proynov,  Y. M. Rhee,  R. M. Richard,  
 M. A. Rohrdanz,  R. P. Steele,  E. J. Sundstrom,  H. L. Woodcock III,  
 P. M. Zimmerman,  D. Zuev,  B. Albrecht,  E. Alguire,  B. Austin,  
 S. A. Baeppler,  G. J. O. Beran,  Y. A. Bernard,  E. Berquist,  
 K. Brandhorst,  K. B. Bravaya,  S. T. Brown,  D. Casanova,  C.-M. Chang,  
 Y. Chen,  S. H. Chien,  K. D. Closser,  D. L. Crittenden,  M. Diedenhofen,  
 R. A. DiStasio Jr.,  H. Do,  A. D. Dutoi,  R. G. Edgar,  P.-T. Fang,  
 S. Fatehi,  Q. Feng,  L. Fusti-Molnar,  A. Ghysels,  
 A. Golubeva-Zadorozhnaya,  J. Gomes,  A. Gunina,  M. W. D. Hanson-Heine,  
 P. H. P. Harbach,  A. W. Hauser,  E. G. Hohenstein,  Z. C. Holden,  K. Hui,  
 T.-C. Jagau,  H. Ji,  B. Kaduk,  K. Khistyaev,  Jaehoon Kim,  Jihan Kim,  
 R. A. King,  P. Klunzinger,  D. Kosenkov,  T. Kowalczyk,  C. M. Krauter,  
 K. U. Lao,  A. Laurent,  K. V. Lawler,  S. Lehtola,  S. V. Levchenko,  
 C. Y. Lin,  Y.-S. Lin,  F. Liu,  E. Livshits,  R. C. Lochan,  A. Luenser,  
 P. Manohar,  S. F. Manzer,  S.-P. Mao,  N. Mardirossian,  A. V. Marenich,  
 L. A. Martinez-Martinez,  S. A. Maurer,  N. J. Mayhall,  K. Nanda,  
 C. M. Oana,  R. Olivares-Amaya,  D. P. O'Neill,  J. A. Parkhill,  
 T. M. Perrine,  R. Peverati,  P. A. Pieniazek,  F. Plasser,  A. Prociuk,  
 D. R. Rehn,  E. Rosta,  N. J. Russ,  N. Sergueev,  S. M. Sharada,  
 S. Sharma,  D. W. Small,  A. Sodt,  T. Stauch,  T. Stein,  D. Stuck,  
 Y.-C. Su,  A. J. W. Thom,  T. Tsuchimochi,  L. Vogt,  O. Vydrov,  T. Wang,  
 M. A. Watson,  J. Wenzel,  A. White,  C. F. Williams,  V. Vanovschi,  
 S. Yeganeh,  S. R. Yost,  Z.-Q. You,  I. Y. Zhang,  X. Zhang,  Y. Zhao,  
 B. R. Brooks,  G. K. L. Chan,  D. M. Chipman,  C. J. Cramer,  
 W. A. Goddard III,  M. S. Gordon,  W. J. Hehre,  A. Klamt,  
 H. F. Schaefer III,  M. W. Schmidt,  C. D. Sherrill,  D. G. Truhlar,  
 A. Warshel,  X. Xu,  A. Aspuru-Guzik,  R. Baer,  A. T. Bell,  N. A. Besley,  
 J.-D. Chai,  A. Dreuw,  B. D. Dunietz,  T. R. Furlani,  S. R. Gwaltney,  
 C.-P. Hsu,  Y. Jung,  J. Kong,  D. S. Lambrecht,  W. Liang,  C. Ochsenfeld,  
 V. A. Rassolov,  L. V. Slipchenko,  J. E. Subotnik,  T. Van Voorhis,  
 J. M. Herbert,  A. I. Krylov,  P. M. W. Gill,  M. Head-Gordon

 Contributors to earlier versions of Q-Chem not listed above: 
 R. D. Adamson,  J. Baker,  E. F. C. Byrd,  A. K. Chakraborty,  C.-L. Cheng,  
 H. Dachsel,  R. J. Doerksen,  G. Hawkins,  A. Heyden,  S. Hirata,  
 G. Kedziora,  F. J. Keil,  C. Kelley,  P. P. Korambath,  W. Kurlancheek,  
 A. M. Lee,  M. S. Lee,  D. Liotard,  I. Lotan,  P. E. Maslen,  N. Nair,  
 D. Neuhauser,  R. Olson,  B. Peters,  J. Ritchie,  N. E. Schultz,  
 N. Shenvi,  A. C. Simmonett,  K. S. Thanthiriwatte,  Q. Wu,  W. Zhang

 Please cite Q-Chem as follows:
 Y. Shao et al., Mol. Phys. 113, 184-215 (2015)
 DOI: 10.1080/00268976.2014.952696

 Q-Chem 4.3.0 for Intel X86 EM64T Linux

 Parts of Q-Chem use Armadillo 5.200.1 (Boston Tea Smuggler).
 http://arma.sourceforge.net/

 Q-Chem begins on Fri Aug 23 17:28:26 2019  

Host: theochem
0

     Scratch files written to /tmp/qchem271555//

Checking the input file for inconsistencies... 	...done.

--------------------------------------------------------------
User input:
--------------------------------------------------------------
$comment
FORCE 1
$end

$molecule
read
$end



$rem
jobtype FORCE
basis cc-pVDZ
method adc(2)
cc_symmetry false
ee_singlets 3
adc_state_to_opt [1,1]
mem_total 4000
mem_static 2000
SCF_GUESS READ                                                                                                          
$end


--------------------------------------------------------------
 Atom   4: ( -1.1347253089, -0.7017430680,  0.0000005741)
         ->( -1.1347253454, -0.7017430680,  0.0000002055)
 Atom   3: ( -1.1347242112,  0.7017448430, -0.0000004525)
         ->( -1.1347253454,  0.7017430680, -0.0000002055)
 Atom   8: (  1.1347242477, -0.7017448430, -0.0000005206)
         ->(  1.1347253454, -0.7017430680, -0.0000002055)
 Atom   1: (  1.1347253454,  0.7017430680,  0.0000002055)
         ->(  1.1347253454,  0.7017430680,  0.0000000000)
 Atom   7: ( -0.0000012093, -1.4295621315,  0.0000000338)
         ->( -0.0000011364, -1.4295621315,  0.0000002422)
 Atom   2: (  0.0000011364,  1.4295621315,  0.0000002422)
         ->(  0.0000000000,  1.4295621315,  0.0000000000)
 Atom   9: (  2.0777624909, -1.2591081750,  0.0000011989)
         ->(  2.0777624545, -1.2591081750,  0.0000001574)
 Atom  10: (  2.0777644605,  1.2591049248, -0.0000008685)
         ->(  2.0777624545,  1.2591081750, -0.0000001574)
 Atom   6: ( -2.0777644241, -1.2591049248, -0.0000012581)
         ->( -2.0777624545, -1.2591081750, -0.0000001574)
 Atom   5: ( -2.0777624545,  1.2591081750,  0.0000001574)
         ->( -2.0777624545,  1.2591081750,  0.0000000000)
 ----------------------------------------------------------------
             Standard Nuclear Orientation (Angstroms)
    I     Atom           X                Y                Z
 ----------------------------------------------------------------
    1      C       1.1347253454     0.7017430680     0.0000000000
    2      N       0.0000000000     1.4295621315     0.0000000000
    3      C      -1.1347253454     0.7017430680    -0.0000002055
    4      C      -1.1347253454    -0.7017430680     0.0000002055
    5      H      -2.0777624545     1.2591081750     0.0000000000
    6      H      -2.0777624545    -1.2591081750    -0.0000001574
    7      N      -0.0000011364    -1.4295621315     0.0000002422
    8      C       1.1347253454    -0.7017430680    -0.0000002055
    9      H       2.0777624545    -1.2591081750     0.0000001574
   10      H       2.0777624545     1.2591081750    -0.0000001574
 ----------------------------------------------------------------
 Molecular Point Group                 D2h   NOp =  8
 Largest Abelian Subgroup              D2h   NOp =  8
 Nuclear Repulsion Energy =   207.1107319044 hartrees
 There are       21 alpha and       21 beta electrons
 Requested basis set is cc-pVDZ
 There are 48 shells and 104 basis functions

 Total QAlloc Memory Limit   4000 MB
 Mega-Array Size      1956 MB
 MEM_STATIC part      2000 MB

                       Distance Matrix (Angstroms)
             C (  1)   N (  2)   C (  3)   C (  4)   H (  5)   H (  6)
   N (  2)  1.348081
   C (  3)  2.269451  1.348081
   C (  4)  2.668366  2.414552  1.403486
   H (  5)  3.260481  2.084743  1.095434  2.175835
   H (  6)  3.763644  3.397947  2.175835  1.095434  2.518216
   N (  7)  2.414553  2.859124  2.414552  1.348080  3.397946  2.084741
   C (  8)  1.403486  2.414552  2.668366  2.269451  3.763644  3.260481
   H (  9)  2.175835  3.397947  3.763644  3.260481  4.858992  4.155525
   H ( 10)  1.095434  2.084743  3.260481  3.763644  4.155525  4.858992
             N (  7)   C (  8)   H (  9)
   C (  8)  1.348082
   H (  9)  2.084744  1.095434
   H ( 10)  3.397948  2.175835  2.518216
 
 tim1(1): 
  1.293000000000002E-003
 tim1(2): 
  0.000000000000000E+000
 A cutoff of  1.0D-11 yielded   1157 shell pairs
 There are      5517 function pairs (      6192 Cartesian)
 
 -------------------------------------------------------
 OpenMP Integral Computing Module                       
 Release: version 1.0, May 2013, Q-Chem Inc. Pittsburgh 
 -------------------------------------------------------
 Integral Job Info:
 Integral job number is                      11
 Integral operator is                         1
 short-range coefficients                     0
 long-range coefficients              100000000
 Omega coefficients                           0
 if combine SR and LR in K                    0
 Integral screening is                        0
 Integral computing path is                   2
 max size of driver memory is            800000
 size of driver memory is                593474
 size of scratch memory is              3179904
 max col of scratch BK array               1296
 max len of scratch array in speh3          155
 max len of scratch index in speh4           18
 max int batch size is                      520
 min int batch size is                       52
 fixed nKL is                                52
 max L of basis functions is                  2
 order of int derivative is                   0
 number of shells is                         48
 number of basis is                         110
 number of cartesian basis is               110
 number of contracted shell pairs          1157
 number of primitive shell pairs           6317
 maxK2 (contraction) of shell pair           49
 max number of K2 of shell pair               1
 max number of CS2 of shell pair            154
 max number of PS2 of shell pair           1078
 mem total for path MDJ                   42562
 -------------------------------------------------------
 Smallest overlap matrix eigenvalue = 1.90E-03

 Scale SEOQF with 1.000000e-01/1.000000e-01/1.000000e+00

 Standard Electronic Orientation quadrupole field applied
 Nucleus-field energy     =     0.0000000051 hartrees
 Guess MOs from SCF MO coefficient file
 Reading MOs from coefficient file
 Reading MOs from coefficient file
 A restricted Hartree-Fock SCF calculation will be
 performed using Pulay DIIS extrapolation
 SCF converges when DIIS error is below 1.0E-08
 using 4 threads for integral computing 
 ---------------------------------------
  Cycle       Energy         DIIS Error
 ---------------------------------------
    1    -262.6990400773      1.14E-10
    2    -262.6990400773      6.57E-11 Convergence criterion met
 ---------------------------------------
 SCF time:  CPU 0.93 s  wall 0.23 s
 SCF   energy in the final basis set = -262.6990400773
 Total energy in the final basis set = -262.6990400773
================================================================================
|                                                                              |
|                                 A D C  M A N                                 |
|                                                                              |
 ------------------------------------------------------------------------------ 
|                                                                              |
| Components:                                                                  |
|                                                                              |
| - libvmm - 1.2-release                                                       |
|   Authors:                                                                   |
|   Evgeny Epifanovsky, Ilya Kaliman                                           |
|                                                                              |
| - libtensor - 2.4-trunk                                                      |
|   Authors:                                                                   |
|   Evgeny Epifanovsky, Michael Wormit, Dmitry Zuev, Sam Manzer                |
|                                                                              |
| - libwfa - 1.1-beta                                                          |
|   Authors:                                                                   |
|   Felix Plasser, Stefanie Baeppler, Benjamin Thomitzni, Michael Wormit       |
|                                                                              |
| - libadc - 1.0-beta                                                          |
|   Authors:                                                                   |
|   Michael Wormit, Philipp H. P. Harbach, Caroline Krauter, Dirk Rehn,        |
|   Matthias Schneider, Jan Wenzel                                             |
|                                                                              |
| - adcman - 2.5-trunk                                                         |
|   Authors:                                                                   |
|   Michael Wormit, Philipp H. P. Harbach, Caroline Krauter, Dirk Rehn,        |
|   Jan Wenzel, Jan-Michael Mewes, Daniel Lefrancois, Andreas Dreuw            |
|                                                                              |
| Authors of earlier versions of ADCMAN:                                       |
| Andreas Dreuw, Jan Hendrik Starcke, Dirk Rehn, Michael Wormit                |
|                                                                              |
================================================================================

 

--------------------------------------------------------------------------------
                                   HF Summary                                   
--------------------------------------------------------------------------------
  Energy:                                                 -262.6990400773 a.u.
  Dip. moment [a.u.]:                  [  -0.000011,   -0.000000,    0.000003]
  Total dipole [Debye]:                                               0.000030
  <r^2> [a.u.]:                        [ 191.703364,  197.609349,   27.243723]
  Total <r^2> [a.u.]:                                               416.556436
--------------------------------------------------------------------------------

--------------------------------------------------------------------------------
                                 MP(2) Summary                                  
--------------------------------------------------------------------------------
  Energy contribution:                                      -0.8546200594 a.u.
  Total energy:                                           -263.5536601366 a.u.
  Dip. moment [a.u.]:                  [   0.000004,   -0.000000,    0.000002]
  Total dipole [Debye]:                                               0.000012
  <r^2> [a.u.]:                        [ 192.147365,  197.213892,   26.821190]
  Total <r^2> [a.u.]:                                               416.182447
--------------------------------------------------------------------------------
  Starting Davidson ... 
--------------------------------------------------------------------------------
   It NVec Conv  Avg. Norm  Max. Norm  Conv. states           Remark
--------------------------------------------------------------------------------
         3    0  3.419e-01  6.469e-01  0.3458 n n n           Guess.
    1    6    0  2.168e-01  5.417e-01  0.1749 n n n           
    2    9    0  4.700e-02  1.213e-01  0.1608 n n n           
    3   12    0  2.134e-02  5.232e-02  0.1595 n n n           
    4   15    0  1.076e-02  2.862e-02  0.1592 n n n           
    5    6    0  4.728e-03  1.136e-02  0.1591 n n n           Subspace collapsed.
    6    9    0  6.608e-03  1.875e-02  0.1591 n n n           
    7   12    0  4.052e-03  1.188e-02  0.1591 n n n           
    8   15    0  2.684e-03  8.011e-03  0.1591 n n n           
    9    6    0  1.343e-03  4.016e-03  0.1591 n n n           Subspace collapsed.
   10    9    0  1.038e-03  3.112e-03  0.1591 n n n           
   11   12    0  5.178e-04  1.551e-03  0.1591 n n n           
   12   15    0  5.887e-04  1.765e-03  0.1591 n n n           
   13    6    0  2.325e-04  6.970e-04  0.1591 n n n           Subspace collapsed.
   14    9    0  3.876e-04  1.163e-03  0.1591 n n n           
   15   12    0  2.492e-04  7.475e-04  0.1591 n n n           
   16   15    1  2.048e-04  6.145e-04  0.1591 y n n           
   17    6    1  1.020e-04  3.061e-04  0.1591 y n n           Subspace collapsed.
   18    9    1  8.403e-05  2.521e-04  0.1591 y n n           
   19   12    2  3.613e-05  1.084e-04  0.1591 y y n           
   20   15    2  4.880e-05  1.464e-04  0.1591 y y n           
   21    6    2  2.378e-05  7.133e-05  0.1591 y y n           Subspace collapsed.
   22    9    2  2.258e-04  6.775e-04  0.1591 y y n           
   23   12    2  4.796e-02  1.439e-01  0.1591 y y n           
   24   15    2  2.041e-02  6.124e-02  0.1591 y n y           
   25    6    2  1.080e-02  3.241e-02  0.1591 y n y           Subspace collapsed.
   26    9    2  7.893e-03  2.368e-02  0.1591 y n y           
   27   12    2  3.152e-03  9.456e-03  0.1591 y n y           
   28   15    2  1.570e-03  4.709e-03  0.1591 y n y           
   29    6    2  7.273e-04  2.182e-03  0.1591 y n y           Subspace collapsed.
   30    9    2  3.988e-04  1.196e-03  0.1591 y n y           
   31   12    2  1.659e-04  4.977e-04  0.1591 y n y           
   32   15    2  1.138e-04  3.415e-04  0.1591 y n y           
   33    6    2  6.062e-05  1.818e-04  0.1591 y n y           Subspace collapsed.
   34    9    2  5.035e-05  1.511e-04  0.1591 y n y           
   35   12    2  2.699e-05  8.098e-05  0.1591 y n y           
   36   15    2  1.847e-05  5.541e-05  0.1591 y n y           
   37    6    2  1.012e-05  3.035e-05  0.1591 y n y           Subspace collapsed.
   38    9    2  9.207e-06  2.762e-05  0.1591 y n y           
   39   12    2  5.747e-06  1.724e-05  0.1591 y n y           
   40   15    2  4.651e-06  1.395e-05  0.1591 y n y           
   41    6    2  1.586e-06  4.757e-06  0.1591 y n y           Subspace collapsed.
   42    8    2  1.545e-06  4.634e-06  0.1591 y n y           
   43   10    2  8.897e-07  2.669e-06  0.1591 y n y           
   44   12    2  6.557e-07  1.967e-06  0.1591 y n y           
   45   14    2  4.674e-07  1.402e-06  0.1591 y n y           
   46   15    3  2.260e-07  6.780e-07  0.1591 y y y           Converged.
--------------------------------------------------------------------------------
  Davidson Summary: 
 ------------------------------------------------------------
  State  0: excitation energy =   0.1591 a.u.   (converged)
  State  1: excitation energy =   0.1818 a.u.   (converged)
  State  2: excitation energy =   0.1916 a.u.   (converged)
 ------------------------------------------------------------


oo: 0.8028317010
oo: 0.5710741600
oooo: 0.0000000000
ooov: -0.1772540637
oovv: -1.4715660307
ovov: -0.2804927775
ovvv: -0.1400976527
vvvv: 0.0000000000
ENERGY: -0.6955046635ENERGY: -0.6955046635 ------------------------------------------------------------------------------
            Enorm      Ldiff       Comment
 ------------------------------------------------------------------------------
     1     4.10e-01   5.48e-02     
     2     1.30e-01   8.69e-05     
     3     9.96e-02   2.24e-02     
     4     2.45e-02   1.29e-02     Switched to DIIS steps.
     5     5.63e-03   5.71e-04     
     6     1.68e-03   5.65e-04     
     7     3.67e-04   5.19e-05     
     8     1.72e-05   2.29e-05     
     9     2.66e-06   6.36e-07     
    10     2.39e-06   6.16e-08     
    11     9.66e-07   1.25e-08     
    12     7.44e-08   1.14e-08     
 ------------------------------------------------------------------------------
                                   Orbital response converged.

--------------------------------------------------------------------------------
                             Excited State Summary
--------------------------------------------------------------------------------
--------------------------------------------------------------------------------

  Excited state 1 (singlet, A)                                     [converged]
  ----------------------------------------------------------------------------
  Term symbol:  2 (1) A                                     R^2 =  8.80828e-14

  Total energy:                                           -263.3945447408 a.u.
  Excitation energy:                                               4.329750 eV

  Osc. strength:                                                      0.005909
  Trans. dip. moment [a.u.]:           [   0.000000,    0.000000,    0.236026]
  <i|r^2|0> [a.u.]:                    [   0.000001,   -0.000000,   -0.000000]

  V1^2 = 0.9128, V2^2 = 0.0872

  Important amplitudes:
      occ i      occ j       vir a       vir b          v   
    ---------------------------------------------------------
     20 (A) A               22 (A) A                  0.6701
     12 (A) A               22 (A) A                 -0.0490
    ---------------------------------------------------------
  ----------------------------------------------------------------------------


  Excited state 2 (singlet, A)                                     [converged]
  ----------------------------------------------------------------------------
  Term symbol:  3 (1) A                                     R^2 =  6.78027e-07

  Total energy:                                           -263.3718788665 a.u.
  Excitation energy:                                               4.946520 eV

  Osc. strength:                                                      0.000000
  Trans. dip. moment [a.u.]:           [   0.000000,   -0.000001,    0.000001]
  <i|r^2|0> [a.u.]:                    [  -0.000002,   -0.000000,   -0.000000]

  V1^2 = 0.8969, V2^2 = 0.1031

  Important amplitudes:
      occ i      occ j       vir a       vir b          v   
    ---------------------------------------------------------
     20 (A) A               23 (A) A                 -0.6652
     20 (A) A               44 (A) A                 -0.0567
    ---------------------------------------------------------
  ----------------------------------------------------------------------------


  Excited state 3 (singlet, A)                                     [converged]
  ----------------------------------------------------------------------------
  Term symbol:  4 (1) A                                     R^2 =  6.15500e-12

  Total energy:                                           -263.3620167397 a.u.
  Excitation energy:                                               5.214882 eV

  Osc. strength:                                                      0.069039
  Trans. dip. moment [a.u.]:           [   0.735100,    0.000001,   -0.000000]
  <i|r^2|0> [a.u.]:                    [  -0.000000,    0.000000,   -0.000001]

  V1^2 = 0.9018, V2^2 = 0.0982

  Important amplitudes:
      occ i      occ j       vir a       vir b          v   
    ---------------------------------------------------------
     21 (A) A               22 (A) A                  0.6079
     19 (A) A               23 (A) A                  0.2733
    ---------------------------------------------------------
  ----------------------------------------------------------------------------


--------------------------------------------------------------------------------
  Time of ADC calculation:  CPU 505.92 s  wall 331.54 s
================================================================================
 
 --------------------------------------------------------------
             Orbital Energies (a.u.) and Symmetries
 --------------------------------------------------------------
 
 Alpha MOs, Restricted
 -- Occupied --                  
-15.600 -15.600 -11.293 -11.293 -11.292 -11.292  -1.300  -1.215
  1 B2u   1 Ag    1 B3u   2 Ag    2 B2u   1 B1g   3 Ag    3 B2u                
 -1.048  -0.900  -0.882  -0.720  -0.696  -0.672  -0.603  -0.567
  2 B3u   4 Ag    2 B1g   5 Ag    3 B3u   4 B2u   4 B3u   1 B1u                
 -0.544  -0.501  -0.430  -0.412  -0.356
  3 B1g   5 B2u   1 B3g   6 Ag    1 B2g                                        
 -- Virtual --                   
  0.088   0.119   0.194   0.208   0.240   0.245   0.324   0.327
  2 B1u   1 Au    7 Ag    5 B3u   6 B2u   4 B1g   2 B3g   8 Ag                 
  0.431   0.454   0.458   0.570   0.600   0.629   0.636   0.657
  6 B3u   7 B2u   5 B1g   8 B2u   6 B1g   9 Ag    7 B3u   3 B1u                
  0.695   0.705   0.706   0.751   0.766   0.773   0.801   0.845
  8 B3u   2 B2g  10 Ag    3 B3g  11 Ag    9 B2u   2 Au    7 B1g                
  0.909   0.922   0.938   0.977   1.072   1.073   1.074   1.099
  9 B3u   8 B1g  10 B2u  12 Ag    4 B1u  11 B2u  13 Ag   12 B2u                
  1.103   1.138   1.163   1.181   1.188   1.254   1.266   1.315
  5 B1u  10 B3u   4 B3g   9 B1g   3 B2g   4 B2g  13 B2u  10 B1g                
  1.371   1.390   1.406   1.418   1.516   1.574   1.624   1.735
 11 B3u   3 Au    5 B3g   6 B1u  14 Ag   11 B1g  15 Ag   12 B3u                
  1.797   1.812   1.821   1.831   1.875   1.897   1.897   1.902
 16 Ag    4 Au   14 B2u  12 B1g  17 Ag   13 B3u   7 B1u  15 B2u                
  1.947   1.959   2.007   2.104   2.107   2.195   2.197   2.243
  6 B3g   5 B2g  16 B2u   7 B3g  14 B3u  17 B2u  18 Ag   13 B1g                
  2.258   2.327   2.438   2.446   2.510   2.510   2.534   2.678
  5 Au   15 B3u   8 B1u  14 B1g  19 Ag   18 B2u   6 B2g   8 B3g                
  2.771   2.814   2.834   2.846   2.865   3.103   3.140   3.163
 16 B3u  15 B1g   6 Au   19 B2u  20 Ag   17 B3u  21 Ag   20 B2u                
  3.205   3.276   3.713
 16 B1g  17 B1g  21 B2u                                                        
 
 Beta MOs, Restricted
 -- Occupied --                  
-15.600 -15.600 -11.293 -11.293 -11.292 -11.292  -1.300  -1.215
  1 B2u   1 Ag    1 B3u   2 Ag    2 B2u   1 B1g   3 Ag    3 B2u                
 -1.048  -0.900  -0.882  -0.720  -0.696  -0.672  -0.603  -0.567
  2 B3u   4 Ag    2 B1g   5 Ag    3 B3u   4 B2u   4 B3u   1 B1u                
 -0.544  -0.501  -0.430  -0.412  -0.356
  3 B1g   5 B2u   1 B3g   6 Ag    1 B2g                                        
 -- Virtual --                   
  0.088   0.119   0.194   0.208   0.240   0.245   0.324   0.327
  2 B1u   1 Au    7 Ag    5 B3u   6 B2u   4 B1g   2 B3g   8 Ag                 
  0.431   0.454   0.458   0.570   0.600   0.629   0.636   0.657
  6 B3u   7 B2u   5 B1g   8 B2u   6 B1g   9 Ag    7 B3u   3 B1u                
  0.695   0.705   0.706   0.751   0.766   0.773   0.801   0.845
  8 B3u   2 B2g  10 Ag    3 B3g  11 Ag    9 B2u   2 Au    7 B1g                
  0.909   0.922   0.938   0.977   1.072   1.073   1.074   1.099
  9 B3u   8 B1g  10 B2u  12 Ag    4 B1u  11 B2u  13 Ag   12 B2u                
  1.103   1.138   1.163   1.181   1.188   1.254   1.266   1.315
  5 B1u  10 B3u   4 B3g   9 B1g   3 B2g   4 B2g  13 B2u  10 B1g                
  1.371   1.390   1.406   1.418   1.516   1.574   1.624   1.735
 11 B3u   3 Au    5 B3g   6 B1u  14 Ag   11 B1g  15 Ag   12 B3u                
  1.797   1.812   1.821   1.831   1.875   1.897   1.897   1.902
 16 Ag    4 Au   14 B2u  12 B1g  17 Ag   13 B3u   7 B1u  15 B2u                
  1.947   1.959   2.007   2.104   2.107   2.195   2.197   2.243
  6 B3g   5 B2g  16 B2u   7 B3g  14 B3u  17 B2u  18 Ag   13 B1g                
  2.258   2.327   2.438   2.446   2.510   2.510   2.534   2.678
  5 Au   15 B3u   8 B1u  14 B1g  19 Ag   18 B2u   6 B2g   8 B3g                
  2.771   2.814   2.834   2.846   2.865   3.103   3.140   3.163
 16 B3u  15 B1g   6 Au   19 B2u  20 Ag   17 B3u  21 Ag   20 B2u                
  3.205   3.276   3.713
 16 B1g  17 B1g  21 B2u                                                        
 --------------------------------------------------------------
 
          Ground-State Mulliken Net Atomic Charges

     Atom                 Charge (a.u.)
  ----------------------------------------
      1 C                     0.036188
      2 N                    -0.189188
      3 C                     0.036209
      4 C                     0.036215
      5 H                     0.058396
      6 H                     0.058393
[...]
|   Jan Wenzel, Jan-Michael Mewes, Daniel Lefrancois, Andreas Dreuw            |
|                                                                              |
| Authors of earlier versions of ADCMAN:                                       |
| Andreas Dreuw, Jan Hendrik Starcke, Dirk Rehn, Michael Wormit                |
|                                                                              |
================================================================================

 

--------------------------------------------------------------------------------
                                   HF Summary                                   
--------------------------------------------------------------------------------
  Energy:                                                 -262.6990400773 a.u.
  Dip. moment [a.u.]:                  [  -0.000011,   -0.000000,    0.000003]
  Total dipole [Debye]:                                               0.000030
  <r^2> [a.u.]:                        [ 191.703364,  197.609349,   27.243723]
  Total <r^2> [a.u.]:                                               416.556436
--------------------------------------------------------------------------------

--------------------------------------------------------------------------------
                                 MP(2) Summary                                  
--------------------------------------------------------------------------------
  Energy contribution:                                      -0.8546200593 a.u.
  Total energy:                                           -263.5536601366 a.u.
  Dip. moment [a.u.]:                  [   0.000004,   -0.000000,    0.000002]
  Total dipole [Debye]:                                               0.000012
  <r^2> [a.u.]:                        [ 192.147365,  197.213892,   26.821190]
  Total <r^2> [a.u.]:                                               416.182447
--------------------------------------------------------------------------------
  Starting Davidson ... 
--------------------------------------------------------------------------------
   It NVec Conv  Avg. Norm  Max. Norm  Conv. states           Remark
--------------------------------------------------------------------------------
         3    0  3.419e-01  6.469e-01  0.3458 n n n           Guess.
    1    6    0  2.168e-01  5.417e-01  0.1749 n n n           
    2    9    0  4.700e-02  1.213e-01  0.1608 n n n           
    3   12    0  2.134e-02  5.232e-02  0.1595 n n n           
    4   15    0  1.076e-02  2.862e-02  0.1592 n n n           
    5    6    0  4.728e-03  1.136e-02  0.1591 n n n           Subspace collapsed.
    6    9    0  6.608e-03  1.875e-02  0.1591 n n n           
    7   12    0  4.052e-03  1.188e-02  0.1591 n n n           
    8   15    0  2.684e-03  8.011e-03  0.1591 n n n           
    9    6    0  1.343e-03  4.016e-03  0.1591 n n n           Subspace collapsed.
   10    9    0  1.038e-03  3.112e-03  0.1591 n n n           
   11   12    0  5.178e-04  1.551e-03  0.1591 n n n           
   12   15    0  5.887e-04  1.765e-03  0.1591 n n n           
   13    6    0  2.325e-04  6.970e-04  0.1591 n n n           Subspace collapsed.
   14    9    0  3.876e-04  1.163e-03  0.1591 n n n           
   15   12    0  2.492e-04  7.475e-04  0.1591 n n n           
   16   15    1  2.048e-04  6.145e-04  0.1591 y n n           
   17    6    1  1.020e-04  3.061e-04  0.1591 y n n           Subspace collapsed.
   18    9    1  8.403e-05  2.521e-04  0.1591 y n n           
   19   12    2  3.613e-05  1.084e-04  0.1591 y y n           
   20   15    2  4.880e-05  1.464e-04  0.1591 y y n           
   21    6    2  2.378e-05  7.133e-05  0.1591 y y n           Subspace collapsed.
   22    9    2  2.258e-04  6.775e-04  0.1591 y y n           
   23   12    2  4.796e-02  1.439e-01  0.1591 y y n           
   24   15    2  2.041e-02  6.124e-02  0.1591 y n y           
   25    6    2  1.080e-02  3.241e-02  0.1591 y n y           Subspace collapsed.
   26    9    2  7.893e-03  2.368e-02  0.1591 y n y           
   27   12    2  3.152e-03  9.456e-03  0.1591 y n y           
   28   15    2  1.570e-03  4.709e-03  0.1591 y n y           
   29    6    2  7.273e-04  2.182e-03  0.1591 y n y           Subspace collapsed.
   30    9    2  3.988e-04  1.196e-03  0.1591 y n y           
   31   12    2  1.659e-04  4.977e-04  0.1591 y n y           
   32   15    2  1.138e-04  3.415e-04  0.1591 y n y           
   33    6    2  6.062e-05  1.818e-04  0.1591 y n y           Subspace collapsed.
   34    9    2  5.035e-05  1.511e-04  0.1591 y n y           
   35   12    2  2.700e-05  8.099e-05  0.1591 y n y           
   36   15    2  1.847e-05  5.541e-05  0.1591 y n y           
   37    6    2  1.012e-05  3.035e-05  0.1591 y n y           Subspace collapsed.
   38    9    2  9.207e-06  2.762e-05  0.1591 y n y           
   39   12    2  5.747e-06  1.724e-05  0.1591 y n y           
   40   15    2  4.650e-06  1.395e-05  0.1591 y n y           
   41    6    2  1.586e-06  4.757e-06  0.1591 y n y           Subspace collapsed.
   42    8    2  1.545e-06  4.634e-06  0.1591 y n y           
   43   10    2  8.899e-07  2.670e-06  0.1591 y n y           
   44   12    2  6.556e-07  1.967e-06  0.1591 y n y           
   45   14    2  4.676e-07  1.403e-06  0.1591 y n y           
   46   15    3  2.259e-07  6.776e-07  0.1591 y y y           Converged.
--------------------------------------------------------------------------------
  Davidson Summary: 
 ------------------------------------------------------------
  State  0: excitation energy =   0.1591 a.u.   (converged)
  State  1: excitation energy =   0.1818 a.u.   (converged)
  State  2: excitation energy =   0.1916 a.u.   (converged)
 ------------------------------------------------------------


oo: 0.7509851461
oo: 0.5805685978
oooo: 0.0000000000
ooov: -0.1235774615
oovv: -1.4530940863
ovov: -0.2228627849
ovvv: -0.1949960737
vvvv: 0.0000000000
ENERGY: -0.6629766624ENERGY: -0.6629766624 ------------------------------------------------------------------------------
            Enorm      Ldiff       Comment
 ------------------------------------------------------------------------------
     1     4.34e-01   6.81e-02     
     2     1.96e-01   6.39e-02     
     3     2.14e-01   3.09e-02     
     4     2.03e-02   1.45e-03     Switched to DIIS steps.
     5     5.43e-03   2.29e-03     
     6     1.44e-03   6.10e-04     
     7     2.63e-04   7.92e-05     
     8     2.31e-05   8.56e-06     
     9     6.80e-06   1.24e-06     
    10     1.36e-06   5.84e-07     
    11     1.76e-06   3.79e-08     
    12     7.03e-08   1.68e-08     
 ------------------------------------------------------------------------------
                                   Orbital response converged.

--------------------------------------------------------------------------------
                             Excited State Summary
--------------------------------------------------------------------------------
--------------------------------------------------------------------------------

  Excited state 1 (singlet, A)                                     [converged]
  ----------------------------------------------------------------------------
  Term symbol:  2 (1) A                                     R^2 =  8.80732e-14

  Total energy:                                           -263.3945447407 a.u.
  Excitation energy:                                               4.329750 eV

  Osc. strength:                                                      0.005909
  Trans. dip. moment [a.u.]:           [   0.000000,    0.000000,    0.236026]
  <i|r^2|0> [a.u.]:                    [   0.000001,   -0.000000,   -0.000000]

  V1^2 = 0.9128, V2^2 = 0.0872

  Important amplitudes:
      occ i      occ j       vir a       vir b          v   
    ---------------------------------------------------------
     20 (A) A               22 (A) A                  0.6701
     12 (A) A               22 (A) A                 -0.0490
    ---------------------------------------------------------
  ----------------------------------------------------------------------------


  Excited state 2 (singlet, A)                                     [converged]
  ----------------------------------------------------------------------------
  Term symbol:  3 (1) A                                     R^2 =  6.77555e-07

  Total energy:                                           -263.3718788663 a.u.
  Excitation energy:                                               4.946520 eV

  Osc. strength:                                                      0.000000
  Trans. dip. moment [a.u.]:           [   0.000000,   -0.000001,    0.000001]
  <i|r^2|0> [a.u.]:                    [  -0.000002,   -0.000000,   -0.000000]

  V1^2 = 0.8969, V2^2 = 0.1031

  Important amplitudes:
      occ i      occ j       vir a       vir b          v   
    ---------------------------------------------------------
     20 (A) A               23 (A) A                 -0.6652
     20 (A) A               44 (A) A                 -0.0567
    ---------------------------------------------------------
  ----------------------------------------------------------------------------


  Excited state 3 (singlet, A)                                     [converged]
  ----------------------------------------------------------------------------
  Term symbol:  4 (1) A                                     R^2 =  6.15382e-12

  Total energy:                                           -263.3620167397 a.u.
  Excitation energy:                                               5.214882 eV

  Osc. strength:                                                      0.069039
  Trans. dip. moment [a.u.]:           [   0.735100,    0.000001,   -0.000000]
  <i|r^2|0> [a.u.]:                    [  -0.000000,    0.000000,   -0.000001]

  V1^2 = 0.9018, V2^2 = 0.0982

  Important amplitudes:
      occ i      occ j       vir a       vir b          v   
    ---------------------------------------------------------
     21 (A) A               22 (A) A                  0.6079
     19 (A) A               23 (A) A                  0.2733
    ---------------------------------------------------------
  ----------------------------------------------------------------------------


--------------------------------------------------------------------------------
  Time of ADC calculation:  CPU 507.77 s  wall 317.98 s
================================================================================
 
 --------------------------------------------------------------
             Orbital Energies (a.u.) and Symmetries
 --------------------------------------------------------------
 
 Alpha MOs, Restricted
 -- Occupied --                  
-15.600 -15.600 -11.293 -11.293 -11.292 -11.292  -1.300  -1.215
  1 B2u   1 Ag    1 B3u   2 Ag    2 B2u   1 B1g   3 Ag    3 B2u                
 -1.048  -0.900  -0.882  -0.720  -0.696  -0.672  -0.603  -0.567
  2 B3u   4 Ag    2 B1g   5 Ag    3 B3u   4 B2u   4 B3u   1 B1u                
 -0.544  -0.501  -0.430  -0.412  -0.356
  3 B1g   5 B2u   1 B3g   6 Ag    1 B2g                                        
 -- Virtual --                   
  0.088   0.119   0.194   0.208   0.240   0.245   0.324   0.327
  2 B1u   1 Au    7 Ag    5 B3u   6 B2u   4 B1g   2 B3g   8 Ag                 
  0.431   0.454   0.458   0.570   0.600   0.629   0.636   0.657
  6 B3u   7 B2u   5 B1g   8 B2u   6 B1g   9 Ag    7 B3u   3 B1u                
  0.695   0.705   0.706   0.751   0.766   0.773   0.801   0.845
  8 B3u   2 B2g  10 Ag    3 B3g  11 Ag    9 B2u   2 Au    7 B1g                
  0.909   0.922   0.938   0.977   1.072   1.073   1.074   1.099
  9 B3u   8 B1g  10 B2u  12 Ag    4 B1u  11 B2u  13 Ag   12 B2u                
  1.103   1.138   1.163   1.181   1.188   1.254   1.266   1.315
  5 B1u  10 B3u   4 B3g   9 B1g   3 B2g   4 B2g  13 B2u  10 B1g                
  1.371   1.390   1.406   1.418   1.516   1.574   1.624   1.735
 11 B3u   3 Au    5 B3g   6 B1u  14 Ag   11 B1g  15 Ag   12 B3u                
  1.797   1.812   1.821   1.831   1.875   1.897   1.897   1.902
 16 Ag    4 Au   14 B2u  12 B1g  17 Ag   13 B3u   7 B1u  15 B2u                
  1.947   1.959   2.007   2.104   2.107   2.195   2.197   2.243
  6 B3g   5 B2g  16 B2u   7 B3g  14 B3u  17 B2u  18 Ag   13 B1g                
  2.258   2.327   2.438   2.446   2.510   2.510   2.534   2.678
  5 Au   15 B3u   8 B1u  14 B1g  19 Ag   18 B2u   6 B2g   8 B3g                
  2.771   2.814   2.834   2.846   2.865   3.103   3.140   3.163
 16 B3u  15 B1g   6 Au   19 B2u  20 Ag   17 B3u  21 Ag   20 B2u                
  3.205   3.276   3.713
 16 B1g  17 B1g  21 B2u                                                        
 
 Beta MOs, Restricted
 -- Occupied --                  
-15.600 -15.600 -11.293 -11.293 -11.292 -11.292  -1.300  -1.215
  1 B2u   1 Ag    1 B3u   2 Ag    2 B2u   1 B1g   3 Ag    3 B2u                
 -1.048  -0.900  -0.882  -0.720  -0.696  -0.672  -0.603  -0.567
  2 B3u   4 Ag    2 B1g   5 Ag    3 B3u   4 B2u   4 B3u   1 B1u                
 -0.544  -0.501  -0.430  -0.412  -0.356
  3 B1g   5 B2u   1 B3g   6 Ag    1 B2g                                        
 -- Virtual --                   
  0.088   0.119   0.194   0.208   0.240   0.245   0.324   0.327
  2 B1u   1 Au    7 Ag    5 B3u   6 B2u   4 B1g   2 B3g   8 Ag                 
  0.431   0.454   0.458   0.570   0.600   0.629   0.636   0.657
  6 B3u   7 B2u   5 B1g   8 B2u   6 B1g   9 Ag    7 B3u   3 B1u                
  0.695   0.705   0.706   0.751   0.766   0.773   0.801   0.845
  8 B3u   2 B2g  10 Ag    3 B3g  11 Ag    9 B2u   2 Au    7 B1g                
  0.909   0.922   0.938   0.977   1.072   1.073   1.074   1.099
  9 B3u   8 B1g  10 B2u  12 Ag    4 B1u  11 B2u  13 Ag   12 B2u                
  1.103   1.138   1.163   1.181   1.188   1.254   1.266   1.315
  5 B1u  10 B3u   4 B3g   9 B1g   3 B2g   4 B2g  13 B2u  10 B1g                
  1.371   1.390   1.406   1.418   1.516   1.574   1.624   1.735
 11 B3u   3 Au    5 B3g   6 B1u  14 Ag   11 B1g  15 Ag   12 B3u                
  1.797   1.812   1.821   1.831   1.875   1.897   1.897   1.902
 16 Ag    4 Au   14 B2u  12 B1g  17 Ag   13 B3u   7 B1u  15 B2u                
  1.947   1.959   2.007   2.104   2.107   2.195   2.197   2.243
  6 B3g   5 B2g  16 B2u   7 B3g  14 B3u  17 B2u  18 Ag   13 B1g                
  2.258   2.327   2.438   2.446   2.510   2.510   2.534   2.678
  5 Au   15 B3u   8 B1u  14 B1g  19 Ag   18 B2u   6 B2g   8 B3g                
  2.771   2.814   2.834   2.846   2.865   3.103   3.140   3.163
 16 B3u  15 B1g   6 Au   19 B2u  20 Ag   17 B3u  21 Ag   20 B2u                
  3.205   3.276   3.713
 16 B1g  17 B1g  21 B2u                                                        
 --------------------------------------------------------------
 
          Ground-State Mulliken Net Atomic Charges

     Atom                 Charge (a.u.)
  ----------------------------------------
      1 C                     0.059007
      2 N                    -0.210368
      3 C                     0.059026
      4 C                     0.059035
      5 H                     0.046168
      6 H                     0.046165
      7 N                    -0.210368
      8 C                     0.058998
      9 H                     0.046171
     10 H                     0.046167
  ----------------------------------------
  Sum of atomic charges =     0.000000

 -----------------------------------------------------------------
                    Cartesian Multipole Moments
 -----------------------------------------------------------------
    Charge (ESU x 10^10)
                -0.0000
    Dipole Moment (Debye)
         X      -0.0000      Y       0.0000      Z      -0.0000
       Tot       0.0000
    Quadrupole Moments (Debye-Ang)
        XX     -27.3073     XY      -0.0000     YY     -42.1527
        XZ      -0.0000     YZ       0.0000     ZZ     -35.9620
    Octopole Moments (Debye-Ang^2)
       XXX      -0.0001    XXY       0.0000    XYY       0.0000
       YYY       0.0000    XXZ      -0.0000    XYZ       0.0000
       YYZ      -0.0000    XZZ       0.0000    YZZ       0.0000
       ZZZ      -0.0000
    Hexadecapole Moments (Debye-Ang^3)
      XXXX    -238.4055   XXXY       0.0000   XXYY     -72.6745
      XYYY      -0.0001   YYYY    -305.1887   XXXZ       0.0000
      XXYZ       0.0000   XYYZ      -0.0000   YYYZ       0.0000
      XXZZ     -54.3280   XYZZ      -0.0000   YYZZ     -51.1650
      XZZZ       0.0000   YZZZ       0.0000   ZZZZ     -36.4401
 -----------------------------------------------------------------
 DrvMan completing analytic gradient of the correlated energy

 Entering direct/semidirect transformation code...
          The following integrals will be calculated:
                        (11|11)
 where index 1 (alpha) is the lowest    104 levels 
       index 1 (beta)  is the lowest    104 levels 
 
 Correlated dipole moment
            1
    1  -0.0000063
    2   0.0000000
    3  -0.0000022
 Nuclear Gradient
             1             2             3             4             5
    1   -7.92085058   -0.00008448    7.92113101    7.91980493    4.12728898
    2   -2.26249748  -15.73419085   -2.26238960    2.26257095   -2.43994063
    3   -0.00017123   -0.00007989    0.00035840   -0.00030829    0.00000325
             6             7             8             9            10
    1    4.12733184    0.00210896   -7.92217665   -4.12725557   -4.12729843
    2    2.43994881   15.73419084    2.26231614    2.43995983   -2.43996800
    3    0.00000708   -0.00014470    0.00034175   -0.00000780    0.00000143
 One-electron Gradient
             1             2             3             4             5
    1    7.89910254    0.00008444   -7.89938292   -7.89805615   -4.12693755
    2    2.25667158   15.67782518    2.25656326   -2.25674465    2.44026736
    3    0.00017150    0.00008006   -0.00035892    0.00030862   -0.00000319
             6             7             8             9            10
    1   -4.12698038   -0.00211034    7.90042931    4.12690411    4.12694694
    2   -2.44027549  -15.67782518   -2.25649019   -2.44028653    2.44029466
    3   -0.00000716    0.00014504   -0.00034234    0.00000787   -0.00000148
 Energy read as -263.362016740
 Full Analytical Gradient: (in a.u., or Hartree/Bohr)
             1             2             3             4             5
    1   -0.02174804   -0.00000004    0.02174809    0.02174878    0.00035143
    2   -0.00582590   -0.05636567   -0.00582634    0.00582629    0.00032673
    3    0.00000027    0.00000017   -0.00000052    0.00000032    0.00000006
             6             7             8             9            10
    1    0.00035146   -0.00000139   -0.02174735   -0.00035145   -0.00035149
    2   -0.00032668    0.05636567    0.00582595   -0.00032671    0.00032666
    3   -0.00000008    0.00000034   -0.00000059    0.00000006   -0.00000005
 Gradient time:  CPU 98.20 s  wall 96.39 s
Archival summary:
1\1\theochem\JobtypUnspecified\ProcedureUnspecified\BasisUnspecified\244\ehrmaier\FriAug2317:49:272019FriAug2317:49:272019\0\\#,JobtypUnspecified,ProcedureUnspecified,BasisUnspecified,\\0,1\N\C,1,1.34808\H,2,1.09543,1,116.739\C,1,1.34808,2,114.647,3,-180,0\H,4,1.09543,1,116.739,2,-180,0\C,4,1.40349,1,122.676,2,-0,0\H,6,1.09543,4,120.584,1,180,0\N,6,1.34808,4,122.676,1,0,0\C,8,1.34808,6,114.647,4,-0,0\H,9,1.09543,8,116.739,6,-180,0\\HF=-262.69904\\@

 Total job time:  415.98s(wall), 609.03s(cpu) 
 Fri Aug 23 17:49:27 2019

        *************************************************************
        *                                                           *
        *  Thank you very much for using Q-Chem.  Have a nice day.  *
        *                                                           *
        *************************************************************


 
