[Molden Format]
[Atoms] (Angs)
  C      1    6      1.14485646      0.70294302      0.01171317
  N      2    7      0.00183188      1.47215580     -0.00381187
  C      3    6     -1.14561384      0.70107529     -0.00269281
  C      4    6     -1.14676415     -0.70101801     -0.01322582
  H      5    1     -2.09663170      1.25416105      0.00641380
  H      6    1     -2.09720807     -1.25142522     -0.00324142
  N      7    7      0.00067398     -1.47444609      0.01550391
  C      8    6      1.14565861     -0.70381343      0.00357167
  H      9    1      2.09662556     -1.25667865     -0.01228987
  H     10    1      2.09655128      1.25703623     -0.00191078
[FREQ]
    352.85864433
    407.44227824
    628.94852973
    713.74898031
    785.61561383
    820.98916528
    966.49567783
   1017.31740411
   1036.11587186
   1047.67857251
   1067.33118429
   1136.07741990
   1185.83378692
   1186.82986621
   1302.26155116
   1402.46200592
   1484.30642703
   1578.11921574
   1619.14582772
   1697.14363377
   3467.93019380
   3479.10664884
   3488.05542167
   3503.63698178
[FR-COORD]
  C      2.16346517      1.32836979      0.02213469
  N      0.00346174      2.78197128     -0.00720338
  C     -2.16489641      1.32484030     -0.00508868
  C     -2.16707017     -1.32473205     -0.02499317
  H     -3.96205970      2.37002090      0.01212033
  H     -3.96314889     -2.36485093     -0.00612539
  N      0.00127364     -2.78629929      0.02929815
  C      2.16498100     -1.33001463      0.00674949
  H      3.96204809     -2.37477848     -0.02322449
  H      3.96190773      2.37545421     -0.00361085
[FR-NORM-COORD]
vibration 1
    -0.00091999     -0.00127054      0.18020690
     0.00019320     -0.00003912     -0.00114894
     0.00062646      0.00138421     -0.17985227
    -0.00138614     -0.00127712      0.18021377
    -0.00064018      0.00292690     -0.46372010
    -0.00093992      0.00269994      0.47133896
     0.00128912     -0.00037099     -0.00137474
     0.00024599      0.00078918     -0.17820247
    -0.00285783      0.00247086     -0.46603288
     0.00091265      0.00205700      0.46530805
vibration 2
     0.00276403     -0.00351309     -0.21959577
    -0.00412445      0.00109022      0.42541334
     0.00215260      0.00007907     -0.22108335
     0.00570238     -0.00336520     -0.21623902
    -0.00137682     -0.00454166     -0.34226695
     0.00283943     -0.00095666     -0.33391209
    -0.00434257      0.00524496      0.42377325
    -0.00038597      0.00033593     -0.22183961
    -0.00499401     -0.00484401     -0.33456310
    -0.00066805     -0.00072357     -0.32492593
vibration 3
    -0.23471718      0.03561732     -0.00199951
     0.00066965      0.45061355     -0.00184205
     0.23423505      0.03404943      0.00023568
     0.23438335     -0.03484556      0.00183136
     0.04556753     -0.30051050      0.00183142
     0.04446745      0.30291507     -0.00246434
     0.00027209     -0.44986891      0.00282796
    -0.23484595     -0.03603548      0.00027167
    -0.04549513      0.30006867     -0.00998213
    -0.04637595     -0.29836136     -0.00712200
vibration 4
    -0.24468211     -0.25167020     -0.00518488
    -0.12917812     -0.00042762      0.00173306
    -0.24448527      0.25248796     -0.00314547
     0.24369881      0.25224673      0.00581296
    -0.30860625      0.15373756     -0.00946194
     0.30994750      0.14918513     -0.00318424
     0.13079653     -0.00048116     -0.00190241
     0.24338289     -0.25155708      0.00345919
     0.30790954     -0.15208461      0.00603252
    -0.30690369     -0.15615967     -0.00224708
vibration 5
    -0.00438371     -0.00308972      0.24992967
     0.00018156     -0.00119414     -0.25063364
    -0.00262618      0.00069547      0.24798532
     0.00659660      0.00253196     -0.24522348
    -0.00350248     -0.00164284      0.37926178
     0.00635363     -0.00042831     -0.41478976
    -0.00035137      0.00349935      0.25113603
     0.00065326     -0.00223291     -0.24758664
    -0.00079288     -0.00196951     -0.41116650
    -0.00255625     -0.00304154      0.37893160
vibration 6
    -0.00242021     -0.00090915     -0.04457182
     0.00038925      0.00182390      0.01104475
     0.00092727     -0.00084890     -0.04766849
    -0.00123881     -0.00071817     -0.05465712
     0.00278479     -0.00525423      0.50218306
    -0.00018251      0.00656331      0.51837165
     0.00068370      0.00151712      0.01438933
     0.00039229     -0.00153713     -0.04981745
     0.00786246     -0.00227931      0.49011257
     0.00248288      0.00233514      0.47818337
vibration 7
    -0.00182413      0.00137718     -0.07248577
     0.00258471     -0.00060944     -0.00022706
    -0.00002283     -0.00192267      0.06877117
    -0.00064623      0.00181670      0.08060251
    -0.00049667      0.00411286     -0.45251512
    -0.00056377     -0.00723203     -0.50346707
     0.00228059     -0.00012430     -0.00026675
    -0.00383469     -0.00040457     -0.08150112
     0.00472965     -0.00078357      0.52524103
     0.00407569      0.00377862      0.49253064
vibration 8
     0.00075136      0.00130320     -0.05916285
     0.00062842     -0.00315447     -0.00416018
    -0.00124285      0.00106655     -0.08030936
     0.00192789      0.00156677      0.07612746
     0.00249172     -0.00141781      0.55422926
     0.00037088     -0.00452347     -0.51827839
    -0.00085518     -0.00196916      0.00444634
    -0.00108184      0.00177435      0.05937405
    -0.00817793      0.00260245     -0.44615173
     0.00424437      0.00653007      0.45350300
vibration 9
    -0.01110796     -0.01402565     -0.11670668
    -0.00178058      0.02575091     -0.00091377
     0.01271266     -0.01294670      0.10226228
    -0.00903064     -0.01374791     -0.09370582
     0.00042987     -0.02759205     -0.45400845
    -0.00023918     -0.02261111      0.40001762
    -0.00243203      0.02682981      0.00042255
     0.01260062     -0.01210432      0.10901065
    -0.00531877     -0.02824413     -0.51442921
     0.00204559     -0.02315373      0.56500030
vibration 10
    -0.12553772     -0.15598803      0.03327600
     0.00345399      0.30646542     -0.00058536
     0.12193045     -0.15578712     -0.02973223
    -0.10703158     -0.14788093      0.03258831
    -0.00035554     -0.38512166      0.13561457
     0.01535758     -0.37478098     -0.14700650
    -0.00060771      0.32255362     -0.00388998
     0.10715711     -0.14729859     -0.02732275
    -0.00980817     -0.36541513      0.12419482
    -0.00328450     -0.38757783     -0.15551205
vibration 11
    -0.23153690     -0.14006637     -0.00103558
    -0.02717064     -0.25489136      0.00051963
     0.26272503     -0.10865055      0.00069706
     0.27821805      0.11933854      0.00333998
     0.17486615     -0.31965247     -0.00138911
     0.18425392      0.34311514      0.01463340
    -0.02663668      0.23301917     -0.00474709
    -0.24727579      0.15108520      0.00173874
    -0.18076274      0.32942806      0.00004441
    -0.17051574     -0.30745070     -0.01099177
vibration 12
    -0.12487977     -0.03770815     -0.00174204
     0.19006239     -0.00836579      0.00205455
    -0.11376225      0.02361790     -0.00069297
    -0.11241166     -0.02200507     -0.00502374
     0.11018357      0.42814198      0.00110012
     0.11661148     -0.43617058      0.01201540
     0.19215853      0.00714945      0.00205980
    -0.13212760      0.03807164      0.00328848
     0.10403144      0.47036869     -0.01832967
     0.11161839     -0.46897149     -0.00229742
vibration 13
    -0.11174378     -0.08587401      0.00051728
    -0.05569514     -0.03598307     -0.00056633
     0.16460580      0.08381765      0.00005812
    -0.12298213     -0.08467481      0.00142759
     0.38239353      0.45569806      0.00679049
    -0.26635493      0.13122444     -0.02021537
    -0.05110695     -0.04434333      0.00113674
     0.17249819      0.08338296     -0.00179187
     0.39259116      0.45777972      0.00771045
    -0.24368419      0.11124148     -0.00472488
vibration 14
    -0.15489079      0.16079306      0.00070201
     0.10531138     -0.03785890      0.00179835
     0.05207744     -0.17222676     -0.00212818
    -0.13794941      0.17263350     -0.00172944
     0.08978359     -0.14803719     -0.00014132
    -0.34254289      0.54397290     -0.00414304
     0.11422448     -0.01529987      0.00259775
     0.02813600     -0.16316243      0.00095756
     0.07202582     -0.12166273     -0.01821360
    -0.33786090      0.48769826     -0.01241095
vibration 15
    -0.04936877      0.04693361      0.00044929
    -0.00001217     -0.01223641      0.00032608
     0.04833303      0.04403525      0.00005251
     0.04318635     -0.04321934     -0.00050114
     0.27548372      0.43429432      0.00270305
     0.26479878     -0.42604970      0.00649756
     0.00058773      0.00987990     -0.00076120
    -0.04497113     -0.04638038     -0.00010294
    -0.25259803     -0.40467693      0.00128798
    -0.26209819      0.41287240     -0.00322512
vibration 16
    -0.00784709     -0.01439188     -0.00041639
     0.09800784     -0.00109291      0.00004639
    -0.00471023      0.01421234      0.00018332
     0.00546760      0.02201521      0.00044275
    -0.25031747     -0.40774147     -0.00208113
     0.26263617     -0.41944592      0.00586921
    -0.10061565     -0.00086369     -0.00002256
     0.00809260     -0.02158562     -0.00021215
     0.27270669      0.43156820     -0.00128098
    -0.26073278      0.41982755     -0.00280890
vibration 17
     0.02484908      0.12270666      0.00039669
    -0.09198719     -0.00148663      0.00009683
     0.02508808     -0.11952795     -0.00089009
     0.02405471      0.11873781      0.00052842
     0.32073410      0.35326073      0.00090430
     0.30418228     -0.32958462      0.00574084
    -0.08488771      0.00147258      0.00007896
     0.02422886     -0.12151960     -0.00057162
     0.32249590      0.35629924     -0.00396800
     0.34064515     -0.38450617      0.00126967
vibration 18
     0.08639317     -0.06821791      0.00030361
     0.01548668      0.07199676     -0.00034245
    -0.11204603     -0.08442244     -0.00013196
     0.11247670     -0.09052362      0.00152732
     0.19723899      0.46309025      0.00244289
    -0.19999582      0.46295040     -0.00377279
    -0.01568282      0.07405037     -0.00128480
    -0.08685170     -0.07473239      0.00050162
     0.19134188      0.41648990     -0.00128277
    -0.18552806      0.41336900     -0.00097974
vibration 19
    -0.23442789      0.15113540     -0.00148096
     0.27359442     -0.01516908      0.00212887
    -0.19428120     -0.12477299      0.00069222
     0.19052540     -0.11728699      0.00310090
     0.04460240      0.30338075     -0.00145171
    -0.03616202      0.29278165      0.00448113
    -0.26780447     -0.01602219     -0.00192388
     0.23103816      0.15186551     -0.00273477
    -0.10078224     -0.44406176      0.00406657
     0.09697494     -0.44433023     -0.00491230
vibration 20
    -0.06974370      0.27446161     -0.00006084
     0.00542292     -0.11819548      0.00113359
     0.06434100      0.28360063      0.00153011
     0.05988284     -0.28067104      0.00067482
    -0.30568567     -0.28683095     -0.00026722
    -0.29520982      0.26605262     -0.00623949
     0.00249762      0.11426577     -0.00202016
    -0.06151542     -0.26901762     -0.00023780
     0.28289725      0.26217005     -0.00463074
     0.29171546     -0.28649356      0.00075792
vibration 21
    -0.06696227     -0.03877235      0.00079230
     0.00100602     -0.00012265      0.00000488
     0.00593445     -0.00268628     -0.00004108
    -0.00576099     -0.00271348      0.00004955
    -0.05367229      0.03153784      0.00042206
     0.05799516      0.03321048     -0.00064862
    -0.00014963      0.00007462      0.00004559
     0.03618564     -0.01775635     -0.00050203
    -0.40714349      0.23437718      0.00587655
     0.75530657      0.43890957     -0.00990820
vibration 22
    -0.01032775     -0.00752355      0.00012840
     0.00143015      0.00005686     -0.00003033
    -0.06930467      0.04106466      0.00055213
     0.02794974      0.01250425     -0.00026174
     0.78614483     -0.45730752     -0.00629817
    -0.31414189     -0.17996459      0.00293196
     0.00023509     -0.00005954      0.00000089
    -0.00854508      0.00556413      0.00014376
     0.09125792     -0.05320529     -0.00129773
     0.13071997      0.07601246     -0.00162518
vibration 23
    -0.03346248     -0.02488639      0.00031053
     0.00113707     -0.00027264      0.00004310
     0.00754768     -0.00357447     -0.00002846
    -0.01499341     -0.00913511      0.00016122
    -0.07861981      0.04634330      0.00067817
     0.18258452      0.10465275     -0.00158277
     0.00180597      0.00027876     -0.00003769
    -0.06565106      0.04277930      0.00097048
     0.74600122     -0.43578313     -0.01098505
     0.37791913      0.22298542     -0.00501890
vibration 24
     0.00856342      0.00591911     -0.00004103
     0.00085396      0.00032788     -0.00000905
    -0.02956659      0.02288811      0.00028534
    -0.06902713     -0.04449151      0.00045324
     0.33378046     -0.19766913     -0.00282337
     0.77995511      0.45461891     -0.00733890
     0.00130031     -0.00032389      0.00005346
     0.01039269     -0.00653499     -0.00013137
    -0.10424682      0.06220163      0.00155634
    -0.09119391     -0.05464705      0.00124755
[INT]
    0.002123
   12.879345
    0.000770
    0.000587
    0.006061
   10.851949
    0.008420
    0.004689
    0.111169
    7.303136
    0.027936
    3.504297
    2.296677
    5.613628
    0.012115
    0.038057
   46.481495
   26.027934
    0.294038
    0.042519
    5.387549
    5.916121
    7.390916
    4.928711
