                  Welcome to Q-Chem
     A Quantum Leap Into The Future Of Chemistry


 Q-Chem 4.3, Q-Chem, Inc., Pleasanton, CA (2015)

 Y. Shao,  Z. Gan,  E. Epifanovsky,  A. T. B. Gilbert,  M. Wormit,  
 J. Kussmann,  A. W. Lange,  A. Behn,  J. Deng,  X. Feng,  D. Ghosh,  
 M. Goldey,  P. R. Horn,  L. D. Jacobson,  I. Kaliman,  R. Z. Khaliullin,  
 T. Kus,  A. Landau,  J. Liu,  E. I. Proynov,  Y. M. Rhee,  R. M. Richard,  
 M. A. Rohrdanz,  R. P. Steele,  E. J. Sundstrom,  H. L. Woodcock III,  
 P. M. Zimmerman,  D. Zuev,  B. Albrecht,  E. Alguire,  B. Austin,  
 S. A. Baeppler,  G. J. O. Beran,  Y. A. Bernard,  E. Berquist,  
 K. Brandhorst,  K. B. Bravaya,  S. T. Brown,  D. Casanova,  C.-M. Chang,  
 Y. Chen,  S. H. Chien,  K. D. Closser,  D. L. Crittenden,  M. Diedenhofen,  
 R. A. DiStasio Jr.,  H. Do,  A. D. Dutoi,  R. G. Edgar,  P.-T. Fang,  
 S. Fatehi,  Q. Feng,  L. Fusti-Molnar,  A. Ghysels,  
 A. Golubeva-Zadorozhnaya,  J. Gomes,  A. Gunina,  M. W. D. Hanson-Heine,  
 P. H. P. Harbach,  A. W. Hauser,  E. G. Hohenstein,  Z. C. Holden,  K. Hui,  
 T.-C. Jagau,  H. Ji,  B. Kaduk,  K. Khistyaev,  Jaehoon Kim,  Jihan Kim,  
 R. A. King,  P. Klunzinger,  D. Kosenkov,  T. Kowalczyk,  C. M. Krauter,  
 K. U. Lao,  A. Laurent,  K. V. Lawler,  S. Lehtola,  S. V. Levchenko,  
 C. Y. Lin,  Y.-S. Lin,  F. Liu,  E. Livshits,  R. C. Lochan,  A. Luenser,  
 P. Manohar,  S. F. Manzer,  S.-P. Mao,  N. Mardirossian,  A. V. Marenich,  
 L. A. Martinez-Martinez,  S. A. Maurer,  N. J. Mayhall,  K. Nanda,  
 C. M. Oana,  R. Olivares-Amaya,  D. P. O'Neill,  J. A. Parkhill,  
 T. M. Perrine,  R. Peverati,  P. A. Pieniazek,  F. Plasser,  A. Prociuk,  
 D. R. Rehn,  E. Rosta,  N. J. Russ,  N. Sergueev,  S. M. Sharada,  
 S. Sharma,  D. W. Small,  A. Sodt,  T. Stauch,  T. Stein,  D. Stuck,  
 Y.-C. Su,  A. J. W. Thom,  T. Tsuchimochi,  L. Vogt,  O. Vydrov,  T. Wang,  
 M. A. Watson,  J. Wenzel,  A. White,  C. F. Williams,  V. Vanovschi,  
 S. Yeganeh,  S. R. Yost,  Z.-Q. You,  I. Y. Zhang,  X. Zhang,  Y. Zhao,  
 B. R. Brooks,  G. K. L. Chan,  D. M. Chipman,  C. J. Cramer,  
 W. A. Goddard III,  M. S. Gordon,  W. J. Hehre,  A. Klamt,  
 H. F. Schaefer III,  M. W. Schmidt,  C. D. Sherrill,  D. G. Truhlar,  
 A. Warshel,  X. Xu,  A. Aspuru-Guzik,  R. Baer,  A. T. Bell,  N. A. Besley,  
 J.-D. Chai,  A. Dreuw,  B. D. Dunietz,  T. R. Furlani,  S. R. Gwaltney,  
 C.-P. Hsu,  Y. Jung,  J. Kong,  D. S. Lambrecht,  W. Liang,  C. Ochsenfeld,  
 V. A. Rassolov,  L. V. Slipchenko,  J. E. Subotnik,  T. Van Voorhis,  
 J. M. Herbert,  A. I. Krylov,  P. M. W. Gill,  M. Head-Gordon

 Contributors to earlier versions of Q-Chem not listed above: 
 R. D. Adamson,  J. Baker,  E. F. C. Byrd,  A. K. Chakraborty,  C.-L. Cheng,  
 H. Dachsel,  R. J. Doerksen,  G. Hawkins,  A. Heyden,  S. Hirata,  
 G. Kedziora,  F. J. Keil,  C. Kelley,  P. P. Korambath,  W. Kurlancheek,  
 A. M. Lee,  M. S. Lee,  D. Liotard,  I. Lotan,  P. E. Maslen,  N. Nair,  
 D. Neuhauser,  R. Olson,  B. Peters,  J. Ritchie,  N. E. Schultz,  
 N. Shenvi,  A. C. Simmonett,  K. S. Thanthiriwatte,  Q. Wu,  W. Zhang

 Please cite Q-Chem as follows:
 Y. Shao et al., Mol. Phys. 113, 184-215 (2015)
 DOI: 10.1080/00268976.2014.952696

 Q-Chem 4.3.0 for Intel X86 EM64T Linux

 Parts of Q-Chem use Armadillo 5.200.1 (Boston Tea Smuggler).
 http://arma.sourceforge.net/

 Q-Chem begins on Tue Oct 22 17:21:20 2019  

Host: theochem
0

     Scratch files written to /tmp/qchem215605//

Checking the input file for inconsistencies... 	...done.

--------------------------------------------------------------
User input:
--------------------------------------------------------------
$molecule                                                               
0 1                                                                     
C       1.1448564643     0.7029430222     0.0117131709                  
N       0.0018318763     1.4721558012    -0.0038118670                  
C      -1.1456138447     0.7010752935    -0.0026928110                  
C      -1.1467641457    -0.7010180114    -0.0132258153                  
H      -2.0966317036     1.2541610504     0.0064138044                  
H      -2.0972080745    -1.2514252167    -0.0032414152                  
N       0.0006739797    -1.4744460878     0.0155039111                  
C       1.1456586084    -0.7038134341     0.0035716747                  
H       2.0966255578    -1.2566786509    -0.0122898730                  
H       2.0965512820     1.2570362336    -0.0019107785                  
$end                                                                    


$rem                                                                    
jobtype opt                                                        
exchange pbe0                                                           
basis cc-pVDZ                                                            
RPA 0                                                                   
MAX_SCF_CYCLES 500                                                      
xc_grid 000075000302                                                    
mem_static 4000                                                         
mem_total 16000                                                         
SYM_IGNORE TRUE                                                         
MOLDEN_FORMAT TRUE
$end                                                                    

--------------------------------------------------------------
 ----------------------------------------------------------------
             Standard Nuclear Orientation (Angstroms)
    I     Atom           X                Y                Z
 ----------------------------------------------------------------
    1      C       1.1448564643     0.7029430222     0.0117131709
    2      N       0.0018318763     1.4721558012    -0.0038118670
    3      C      -1.1456138447     0.7010752935    -0.0026928110
    4      C      -1.1467641457    -0.7010180114    -0.0132258153
    5      H      -2.0966317036     1.2541610504     0.0064138044
    6      H      -2.0972080745    -1.2514252167    -0.0032414152
    7      N       0.0006739797    -1.4744460878     0.0155039111
    8      C       1.1456586084    -0.7038134341     0.0035716747
    9      H       2.0966255578    -1.2566786509    -0.0122898730
   10      H       2.0965512820     1.2570362336    -0.0019107785
 ----------------------------------------------------------------
 Nuclear Repulsion Energy =   204.0785736205 hartrees
 There are       21 alpha and       21 beta electrons
 Requested basis set is cc-pVDZ
 There are 48 shells and 104 basis functions

 Total QAlloc Memory Limit  16000 MB
 Mega-Array Size      3911 MB
 MEM_STATIC part      4000 MB
 tim1(1): 
  1.392000000000001E-003
 tim1(2): 
  0.000000000000000E+000
 A cutoff of  1.0D-11 yielded   1157 shell pairs
 There are      5517 function pairs (      6192 Cartesian)
 
 -------------------------------------------------------
 OpenMP Integral Computing Module                       
 Release: version 1.0, May 2013, Q-Chem Inc. Pittsburgh 
 -------------------------------------------------------
 Integral Job Info:
 Integral job number is                      11
 Integral operator is                         1
 short-range coefficients                     0
 long-range coefficients              100000000
 Omega coefficients                           0
 if combine SR and LR in K                    0
 Integral screening is                        0
 Integral computing path is                   2
 max size of driver memory is            800000
 size of driver memory is                593474
 size of scratch memory is              3179904
 max col of scratch BK array               1296
 max len of scratch array in speh3          155
 max len of scratch index in speh4           18
 max int batch size is                      520
 min int batch size is                       52
 fixed nKL is                                52
 max L of basis functions is                  2
 order of int derivative is                   0
 number of shells is                         48
 number of basis is                         110
 number of cartesian basis is               110
 number of contracted shell pairs          1157
 number of primitive shell pairs           6279
 maxK2 (contraction) of shell pair           49
 max number of K2 of shell pair               1
 max number of CS2 of shell pair            155
 max number of PS2 of shell pair           1085
 mem total for path MDJ                   39370
 -------------------------------------------------------
 Smallest overlap matrix eigenvalue = 2.07E-03

 Scale SEOQF with 1.000000e-01/1.000000e-01/1.000000e+00

 Standard Electronic Orientation quadrupole field applied
 Nucleus-field energy     =     0.0000000052 hartrees
 Guess from superposition of atomic densities
 Warning:  Energy on first SCF cycle will be non-variational
 A restricted hybrid HF-DFT SCF calculation will be
 performed using Pulay DIIS extrapolation
 Exchange:     0.2500 Hartree-Fock + 0.7500 PBE
 Correlation:  1.0000 PBE
 Using Euler-Maclaurin-Lebedev (75,302) quadrature formula
 SCF converges when DIIS error is below 1.0E-08
 using 4 threads for integral computing 
 -------------------------------------------------------
 OpenMP BLAS3 based DFT computing Module                
 Release: version 1.0, May 2013, Q-Chem Inc. Pittsburgh 
 -------------------------------------------------------
 ---------------------------------------
  Cycle       Energy         DIIS Error
 ---------------------------------------
    1    -265.1609464048      7.33E-02
    2    -263.9924626391      4.10E-03
    3    -264.0040171798      3.30E-03
    4    -264.0181589043      1.03E-03
    5    -264.0192555895      3.78E-04
    6    -264.0194276872      5.53E-05
    7    -264.0194312108      1.70E-05
    8    -264.0194315582      7.61E-06
    9    -264.0194316387      1.35E-06
   10    -264.0194316405      7.79E-07
   11    -264.0194316414      3.93E-08
   12    -264.0194316415      3.41E-08
   13    -264.0194316415      3.05E-09 Convergence criterion met
 ---------------------------------------
 SCF time:  CPU 30.38 s  wall 7.61 s
 SCF   energy in the final basis set = -264.0194316415
 Total energy in the final basis set = -264.0194316415
 
 --------------------------------------------------------------
 
                    Orbital Energies (a.u.)
 --------------------------------------------------------------
 
 Alpha MOs
 -- Occupied --
-14.428 -14.428 -10.292 -10.291 -10.291 -10.291  -0.995  -0.926
 -0.799  -0.688  -0.666  -0.538  -0.524  -0.503  -0.448  -0.432
 -0.393  -0.337  -0.336  -0.290  -0.277
 -- Virtual --
 -0.064  -0.026   0.081   0.099   0.116   0.130   0.135   0.161
  0.262   0.291   0.293   0.379   0.417   0.443   0.444   0.464
  0.489   0.515   0.521   0.537   0.554   0.567   0.595   0.598
  0.660   0.663   0.727   0.781   0.833   0.854   0.859   0.868
  0.897   0.903   0.903   0.955   0.987   1.017   1.044   1.088
  1.136   1.146   1.152   1.159   1.272   1.349   1.389   1.473
  1.518   1.542   1.557   1.559   1.595   1.601   1.611   1.643
  1.659   1.693   1.741   1.806   1.834   1.861   1.894   1.958
  1.974   2.041   2.113   2.128   2.183   2.186   2.209   2.340
  2.438   2.443   2.464   2.514   2.518   2.702   2.744   2.788
  2.814   2.930   3.257
 --------------------------------------------------------------
 
          Ground-State Mulliken Net Atomic Charges

     Atom                 Charge (a.u.)
  ----------------------------------------
      1 C                     0.063829
      2 N                    -0.214504
      3 C                     0.063894
      4 C                     0.065268
      5 H                     0.043152
      6 H                     0.042630
      7 N                    -0.215581
      8 C                     0.064301
      9 H                     0.043400
     10 H                     0.043611
  ----------------------------------------
  Sum of atomic charges =     0.000000

 -----------------------------------------------------------------
                    Cartesian Multipole Moments
 -----------------------------------------------------------------
    Charge (ESU x 10^10)
                 0.0000
    Dipole Moment (Debye)
         X       0.0052      Y       0.0028      Z      -0.0200
       Tot       0.0209
    Quadrupole Moments (Debye-Ang)
        XX     -26.4824     XY      -0.0065     YY     -40.4724
        XZ      -0.0541     YZ       0.0672     ZZ     -35.9528
    Octopole Moments (Debye-Ang^2)
       XXX      -0.0382    XXY       0.0032    XYY       0.0077
       YYY       0.0842    XXZ      -0.0972    XYZ       0.0030
       YYZ      -0.1327    XZZ       0.0029    YZZ       0.0189
       ZZZ      -0.1570
    Hexadecapole Moments (Debye-Ang^3)
      XXXX    -232.6142   XXXY      -0.0193   XXYY     -72.1189
      XYYY      -0.0340   YYYY    -304.3235   XXXZ      -0.8390
      XXYZ       0.1671   XYYZ      -0.2784   YYYZ       0.4508
      XXZZ     -54.3660   XYZZ      -0.0001   YYZZ     -51.5863
      XZZZ      -0.5647   YZZZ       0.2032   ZZZZ     -35.9936
 -----------------------------------------------------------------
 Calculating analytic gradient of the SCF energy
 Gradient of SCF Energy
            1           2           3           4           5           6
    1   0.0261206   0.0014650  -0.0280186  -0.0298503  -0.0041068  -0.0031375
    2  -0.0130134   0.0531152  -0.0152702   0.0152157   0.0019916  -0.0012945
    3   0.0048398  -0.0032803   0.0016308  -0.0061738   0.0009826   0.0006604
            7           8           9          10
    1   0.0008135   0.0283304   0.0039029   0.0044808
    2  -0.0546769   0.0134524  -0.0021479   0.0026280
    3   0.0052970  -0.0019051  -0.0013208  -0.0007306
 Max gradient component =       5.468E-02
 RMS gradient           =       1.824E-02
 Gradient time:  CPU 6.39 s  wall 1.60 s
 Geometry Optimization Parameters
   NAtoms,    NIC,     NZ,  NCons,   NDum,   NFix, NCnnct, MaxDiis
       10      60       0       0       0       0       0       0


** GEOMETRY OPTIMIZATION IN DELOCALIZED INTERNAL COORDINATES **
   Searching for a Minimum

   Optimization Cycle:   1

                       Coordinates (Angstroms)
     ATOM                X               Y               Z
      1  C         1.1448564643    0.7029430222    0.0117131709
      2  N         0.0018318763    1.4721558012   -0.0038118670
      3  C        -1.1456138447    0.7010752935   -0.0026928110
      4  C        -1.1467641457   -0.7010180114   -0.0132258153
      5  H        -2.0966317036    1.2541610504    0.0064138044
      6  H        -2.0972080745   -1.2514252167   -0.0032414152
      7  N         0.0006739797   -1.4744460878    0.0155039111
      8  C         1.1456586084   -0.7038134341    0.0035716747
      9  H         2.0966255578   -1.2566786509   -0.0122898730
     10  H         2.0965512820    1.2570362336   -0.0019107785
   Point Group: c1    Number of degrees of freedom:    24


   Energy is   -264.019431642


 Attempting to Generate Delocalized Internal Coordinates

 24 Hessian modes will be used to form the next step
  Hessian Eigenvalues:
     0.018134    0.019734    0.020053    0.020644    0.020706    0.020959
     0.021262    0.159912    0.159947    0.160000    0.160000    0.219918
     0.226894    0.237016    0.335355    0.336609    0.336696    0.338643
     0.408975    0.449082    0.459014    0.477141    0.488772    0.490888

 Minimum Search - Taking Simple RFO Step
 Searching for Lamda that Minimizes Along All modes
 Value Taken    Lamda =  -0.01592511
 Step Taken.  Stepsize is  0.207507

                             Maximum     Tolerance    Cnvgd?
         Gradient           0.053558      0.000300      NO
         Displacement       0.126356      0.001200      NO
         Energy change     *********      0.000001      NO


 New Cartesian Coordinates Obtained by Inverse Iteration

 Displacement from previous Coordinates is:  0.221239
 ----------------------------------------------------------------
             Standard Nuclear Orientation (Angstroms)
    I     Atom           X                Y                Z
 ----------------------------------------------------------------
    1      C       1.1193225254     0.6941231410    -0.0009405603
    2      N       0.0009667113     1.4255572982     0.0010588892
    3      C      -1.1198055186     0.6937446897     0.0014144577
    4      C      -1.1200965602    -0.6929487807     0.0002488596
    5      H      -2.0603213151     1.2512744229     0.0008462064
    6      H      -2.0606471843    -1.2503783002    -0.0022052814
    7      N       0.0003298768    -1.4256072111     0.0009040961
    8      C       1.1191834207    -0.6945213402    -0.0021100090
    9      H       2.0601520670    -1.2513924591    -0.0014921786
   10      H       2.0608959771     1.2501385395     0.0023055214
 ----------------------------------------------------------------
 Nuclear Repulsion Energy =   208.8730830443 hartrees
 There are       21 alpha and       21 beta electrons
 Applying Cartesian multipole field
    Component          Value
    ---------          -----
     (2,0,0)        1.00000E-11
     (0,2,0)        2.00000E-11
     (0,0,2)       -3.00000E-10
 Nucleus-field energy     =     0.0000000050 hartrees
 Requested basis set is cc-pVDZ
 There are 48 shells and 104 basis functions
 tim1(1): 
  4.059999999995512E-003
 tim1(2): 
  0.000000000000000E+000
 A cutoff of  1.0D-11 yielded   1157 shell pairs
 There are      5517 function pairs (      6192 Cartesian)
 Smallest overlap matrix eigenvalue = 1.80E-03
 Guess MOs from SCF MO coefficient file
 Reading MOs from coefficient file
 Reading MOs from coefficient file
 A restricted hybrid HF-DFT SCF calculation will be
 performed using Pulay DIIS extrapolation
 Exchange:     0.2500 Hartree-Fock + 0.7500 PBE
 Correlation:  1.0000 PBE
 Using Euler-Maclaurin-Lebedev (75,302) quadrature formula
 SCF converges when DIIS error is below 1.0E-08
Geometry optimization detected.  Setting ReadMinima to 0
Setting SaveMinima to 0
 using 4 threads for integral computing 
 -------------------------------------------------------
 OpenMP BLAS3 based DFT computing Module                
 Release: version 1.0, May 2013, Q-Chem Inc. Pittsburgh 
 -------------------------------------------------------
 ---------------------------------------
  Cycle       Energy         DIIS Error
 ---------------------------------------
    1    -264.1533747041      3.78E-03
    2    -264.0257732964      1.25E-03
    3    -264.0264334382      1.13E-03
    4    -264.0279823275      2.49E-04
    5    -264.0280542442      3.47E-05
    6    -264.0280556097      9.13E-06
    7    -264.0280556690      6.42E-06
    8    -264.0280557259      3.33E-07
    9    -264.0280557260      1.54E-07
   10    -264.0280557261      7.86E-08
   11    -264.0280557262      2.03E-08
   12    -264.0280557262      9.10E-09 Convergence criterion met
 ---------------------------------------
 SCF time:  CPU 29.02 s  wall 7.27 s
 SCF   energy in the final basis set = -264.0280557262
 Total energy in the final basis set = -264.0280557262
 
 --------------------------------------------------------------
 
                    Orbital Energies (a.u.)
 --------------------------------------------------------------
 
 Alpha MOs
 -- Occupied --
-14.417 -14.417 -10.283 -10.283 -10.283 -10.283  -1.018  -0.944
 -0.805  -0.687  -0.678  -0.547  -0.536  -0.501  -0.449  -0.446
 -0.396  -0.347  -0.334  -0.291  -0.268
 -- Virtual --
 -0.052  -0.022   0.084   0.101   0.133   0.134   0.141   0.180
  0.279   0.308   0.309   0.392   0.428   0.443   0.452   0.461
  0.496   0.512   0.534   0.548   0.551   0.580   0.596   0.622
  0.685   0.693   0.729   0.782   0.837   0.859   0.865   0.867
  0.897   0.913   0.915   0.961   0.990   1.030   1.057   1.099
  1.157   1.158   1.168   1.173   1.265   1.358   1.388   1.491
  1.545   1.554   1.574   1.577   1.620   1.638   1.638   1.643
  1.680   1.703   1.756   1.837   1.841   1.915   1.915   1.968
  1.996   2.061   2.140   2.173   2.213   2.214   2.222   2.384
  2.473   2.524   2.528   2.548   2.556   2.780   2.823   2.868
  2.878   2.982   3.382
 --------------------------------------------------------------
 
          Ground-State Mulliken Net Atomic Charges

     Atom                 Charge (a.u.)
  ----------------------------------------
      1 C                     0.062934
      2 N                    -0.190131
      3 C                     0.062994
      4 C                     0.062877
      5 H                     0.032198
      6 H                     0.032175
      7 N                    -0.190286
      8 C                     0.062897
      9 H                     0.032160
     10 H                     0.032183
  ----------------------------------------
  Sum of atomic charges =    -0.000000

 -----------------------------------------------------------------
                    Cartesian Multipole Moments
 -----------------------------------------------------------------
    Charge (ESU x 10^10)
                -0.0000
    Dipole Moment (Debye)
         X       0.0021      Y       0.0001      Z      -0.0030
       Tot       0.0037
    Quadrupole Moments (Debye-Ang)
        XX     -27.0664     XY      -0.0046     YY     -40.0143
        XZ       0.0074     YZ       0.0047     ZZ     -35.4681
    Octopole Moments (Debye-Ang^2)
       XXX       0.0009    XXY      -0.0023    XYY      -0.0124
       YYY      -0.0052    XXZ      -0.0030    XYZ       0.0016
       YYZ      -0.0162    XZZ       0.0075    YZZ      -0.0009
       ZZZ      -0.0072
    Hexadecapole Moments (Debye-Ang^3)
      XXXX    -228.0914   XXXY       0.0031   XXYY     -69.8494
      XYYY      -0.0176   YYYY    -289.1086   XXXZ       0.1201
      XXYZ       0.0162   XYYZ       0.0402   YYYZ      -0.0424
      XXZZ     -52.1951   XYZZ       0.0026   YYZZ     -49.1925
      XZZZ       0.0844   YZZZ      -0.0479   ZZZZ     -35.0720
 -----------------------------------------------------------------
 Calculating analytic gradient of the SCF energy
 Gradient of SCF Energy
            1           2           3           4           5           6
    1  -0.0013157   0.0009974   0.0002113   0.0001136   0.0013346   0.0013730
    2  -0.0093606   0.0099630  -0.0108038   0.0109859   0.0004320  -0.0004685
    3  -0.0002183  -0.0000978   0.0003206  -0.0000175  -0.0000658  -0.0001780
            7           8           9          10
    1   0.0009552  -0.0009936  -0.0013778  -0.0012979
    2  -0.0102162   0.0095054  -0.0004616   0.0004245
    3   0.0004348  -0.0004773   0.0000757   0.0002236
 Max gradient component =       1.099E-02
 RMS gradient           =       4.591E-03
 Gradient time:  CPU 6.51 s  wall 1.63 s
 Geometry Optimization Parameters
   NAtoms,    NIC,     NZ,  NCons,   NDum,   NFix, NCnnct, MaxDiis
       10      60       0       0       0       0       0       0

 Cartesian Hessian Update
 Hessian Updated using BFGS Update


** GEOMETRY OPTIMIZATION IN DELOCALIZED INTERNAL COORDINATES **
   Searching for a Minimum

   Optimization Cycle:   2

                       Coordinates (Angstroms)
     ATOM                X               Y               Z
      1  C         1.1193225254    0.6941231410   -0.0009405603
      2  N         0.0009667113    1.4255572982    0.0010588892
      3  C        -1.1198055186    0.6937446897    0.0014144577
      4  C        -1.1200965602   -0.6929487807    0.0002488596
      5  H        -2.0603213151    1.2512744229    0.0008462064
      6  H        -2.0606471843   -1.2503783002   -0.0022052814
      7  N         0.0003298768   -1.4256072111    0.0009040961
      8  C         1.1191834207   -0.6945213402   -0.0021100090
      9  H         2.0601520670   -1.2513924591   -0.0014921786
     10  H         2.0608959771    1.2501385395    0.0023055214
   Point Group: c1    Number of degrees of freedom:    24


   Energy is   -264.028055726

 Hessian Updated using BFGS Update

 24 Hessian modes will be used to form the next step
  Hessian Eigenvalues:
     0.018139    0.019831    0.020358    0.020645    0.020716    0.020970
     0.021262    0.159741    0.159944    0.159983    0.160026    0.212180
     0.219919    0.226894    0.335625    0.336651    0.337521    0.339195
     0.408986    0.444313    0.459218    0.476725    0.489604    0.540069

 Minimum Search - Taking Simple RFO Step
 Searching for Lamda that Minimizes Along All modes
 Value Taken    Lamda =  -0.00100051
 Step Taken.  Stepsize is  0.070326

                             Maximum     Tolerance    Cnvgd?
         Gradient           0.011323      0.000300      NO
         Displacement       0.046716      0.001200      NO
         Energy change     -0.008624      0.000001      NO


 New Cartesian Coordinates Obtained by Inverse Iteration

 Displacement from previous Coordinates is:  0.070154
 ----------------------------------------------------------------
             Standard Nuclear Orientation (Angstroms)
    I     Atom           X                Y                Z
 ----------------------------------------------------------------
    1      C       1.1281323740     0.6961867293     0.0014465652
    2      N       0.0004770774     1.4077348590     0.0014184980
    3      C      -1.1281686435     0.6963062806    -0.0006213893
    4      C      -1.1284582190    -0.6956857792    -0.0009928757
    5      H      -2.0690467539     1.2554136782     0.0014962518
    6      H      -2.0695709204    -1.2545996027    -0.0000036765
    7      N      -0.0002101348    -1.4075572365    -0.0025011874
    8      C       1.1277361159    -0.6966479072     0.0007814692
    9      H       2.0691677309    -1.2550162578    -0.0013975877
   10      H       2.0699213735     1.2538552363     0.0004039335
 ----------------------------------------------------------------
 Nuclear Repulsion Energy =   208.9284954377 hartrees
 There are       21 alpha and       21 beta electrons
 Applying Cartesian multipole field
    Component          Value
    ---------          -----
     (2,0,0)        1.00000E-11
     (0,2,0)        2.00000E-11
     (0,0,2)       -3.00000E-10
 Nucleus-field energy     =     0.0000000050 hartrees
 Requested basis set is cc-pVDZ
 There are 48 shells and 104 basis functions
 tim1(1): 
  3.566000000006397E-003
 tim1(2): 
  0.000000000000000E+000
 A cutoff of  1.0D-11 yielded   1157 shell pairs
 There are      5517 function pairs (      6192 Cartesian)
 Smallest overlap matrix eigenvalue = 1.78E-03
 Guess MOs from SCF MO coefficient file
 Reading MOs from coefficient file
 Reading MOs from coefficient file
 A restricted hybrid HF-DFT SCF calculation will be
 performed using Pulay DIIS extrapolation
 Exchange:     0.2500 Hartree-Fock + 0.7500 PBE
 Correlation:  1.0000 PBE
 Using Euler-Maclaurin-Lebedev (75,302) quadrature formula
 SCF converges when DIIS error is below 1.0E-08
Geometry optimization detected.  Setting ReadMinima to 0
Setting SaveMinima to 0
 using 4 threads for integral computing 
 -------------------------------------------------------
 OpenMP BLAS3 based DFT computing Module                
 Release: version 1.0, May 2013, Q-Chem Inc. Pittsburgh 
 -------------------------------------------------------
 ---------------------------------------
  Cycle       Energy         DIIS Error
 ---------------------------------------
    1    -264.0385571689      9.60E-04
    2    -264.0285108092      1.29E-04
    3    -264.0285098073      1.47E-04
    4    -264.0285359261      2.94E-05
    5    -264.0285368543      9.55E-06
    6    -264.0285369627      2.96E-06
    7    -264.0285369705      1.75E-06
    8    -264.0285369748      1.33E-07
    9    -264.0285369748      1.27E-07
   10    -264.0285369748      9.93E-09 Convergence criterion met
 ---------------------------------------
 SCF time:  CPU 24.01 s  wall 6.02 s
 SCF   energy in the final basis set = -264.0285369748
 Total energy in the final basis set = -264.0285369748
 
 --------------------------------------------------------------
 
                    Orbital Energies (a.u.)
 --------------------------------------------------------------
 
 Alpha MOs
 -- Occupied --
-14.415 -14.415 -10.283 -10.283 -10.283 -10.283  -1.018  -0.942
 -0.806  -0.684  -0.680  -0.546  -0.536  -0.503  -0.451  -0.446
 -0.401  -0.347  -0.329  -0.291  -0.262
 -- Virtual --
 -0.049  -0.023   0.085   0.101   0.132   0.135   0.140   0.182
  0.279   0.307   0.308   0.391   0.427   0.443   0.455   0.461
  0.497   0.513   0.532   0.547   0.550   0.575   0.596   0.624
  0.685   0.697   0.729   0.782   0.837   0.864   0.871   0.873
  0.894   0.912   0.914   0.961   0.988   1.025   1.058   1.099
  1.152   1.162   1.178   1.180   1.262   1.354   1.388   1.489
  1.540   1.555   1.570   1.573   1.622   1.630   1.640   1.645
  1.684   1.700   1.762   1.831   1.835   1.913   1.929   1.966
  1.991   2.055   2.141   2.165   2.198   2.208   2.230   2.384
  2.465   2.524   2.533   2.549   2.568   2.787   2.829   2.867
  2.885   2.959   3.415
 --------------------------------------------------------------
 
          Ground-State Mulliken Net Atomic Charges

     Atom                 Charge (a.u.)
  ----------------------------------------
      1 C                     0.061773
      2 N                    -0.190204
      3 C                     0.061820
      4 C                     0.061714
      5 H                     0.033326
      6 H                     0.033347
      7 N                    -0.190128
      8 C                     0.061699
      9 H                     0.033326
     10 H                     0.033325
  ----------------------------------------
  Sum of atomic charges =    -0.000000

 -----------------------------------------------------------------
                    Cartesian Multipole Moments
 -----------------------------------------------------------------
    Charge (ESU x 10^10)
                 0.0000
    Dipole Moment (Debye)
         X       0.0012      Y      -0.0003      Z       0.0017
       Tot       0.0021
    Quadrupole Moments (Debye-Ang)
        XX     -26.8925     XY      -0.0031     YY     -39.9434
        XZ      -0.0071     YZ      -0.0087     ZZ     -35.4639
    Octopole Moments (Debye-Ang^2)
       XXX       0.0135    XXY      -0.0007    XYY      -0.0068
       YYY      -0.0087    XXZ       0.0033    XYZ       0.0005
       YYZ       0.0096    XZZ       0.0046    YZZ      -0.0018
       ZZZ       0.0061
    Hexadecapole Moments (Debye-Ang^3)
      XXXX    -229.9252   XXXY       0.0049   XXYY     -69.7056
      XYYY      -0.0192   YYYY    -285.6618   XXXZ      -0.1018
      XXYZ      -0.0247   XYYZ      -0.0345   YYYZ      -0.1548
      XXZZ     -52.7102   XYZZ       0.0006   YYZZ     -48.7602
      XZZZ      -0.0665   YZZZ      -0.1123   ZZZZ     -35.0702
 -----------------------------------------------------------------
 Calculating analytic gradient of the SCF energy
 Gradient of SCF Energy
            1           2           3           4           5           6
    1   0.0002293   0.0002890  -0.0005671  -0.0004429  -0.0000010  -0.0000436
    2  -0.0012952  -0.0005255  -0.0019821   0.0019900  -0.0002976   0.0002402
    3   0.0000120   0.0002069  -0.0004737   0.0001225   0.0001105   0.0001243
            7           8           9          10
    1   0.0002844   0.0001312   0.0000670   0.0000538
    2   0.0006159   0.0012946   0.0003317  -0.0003719
    3  -0.0003768   0.0005205  -0.0001073  -0.0001387
 Max gradient component =       1.990E-03
 RMS gradient           =       6.784E-04
 Gradient time:  CPU 6.46 s  wall 1.62 s
 Geometry Optimization Parameters
   NAtoms,    NIC,     NZ,  NCons,   NDum,   NFix, NCnnct, MaxDiis
       10      60       0       0       0       0       0       0

 Cartesian Hessian Update
 Hessian Updated using BFGS Update


** GEOMETRY OPTIMIZATION IN DELOCALIZED INTERNAL COORDINATES **
   Searching for a Minimum

   Optimization Cycle:   3

                       Coordinates (Angstroms)
     ATOM                X               Y               Z
      1  C         1.1281323740    0.6961867293    0.0014465652
      2  N         0.0004770774    1.4077348590    0.0014184980
      3  C        -1.1281686435    0.6963062806   -0.0006213893
      4  C        -1.1284582190   -0.6956857792   -0.0009928757
      5  H        -2.0690467539    1.2554136782    0.0014962518
      6  H        -2.0695709204   -1.2545996027   -0.0000036765
      7  N        -0.0002101348   -1.4075572365   -0.0025011874
      8  C         1.1277361159   -0.6966479072    0.0007814692
      9  H         2.0691677309   -1.2550162578   -0.0013975877
     10  H         2.0699213735    1.2538552363    0.0004039335
   Point Group: c1    Number of degrees of freedom:    24


   Energy is   -264.028536975

 Hessian Updated using BFGS Update

 24 Hessian modes will be used to form the next step
  Hessian Eigenvalues:
     0.018164    0.020022    0.020443    0.020656    0.020716    0.020968
     0.021261    0.159894    0.159963    0.159998    0.164035    0.219918
     0.223593    0.226896    0.335550    0.336644    0.337056    0.338751
     0.408819    0.427100    0.459155    0.476730    0.489599    0.531989

 Minimum Search - Taking Simple RFO Step
 Searching for Lamda that Minimizes Along All modes
 Value Taken    Lamda =  -0.00003700
 Step Taken.  Stepsize is  0.020844

                             Maximum     Tolerance    Cnvgd?
         Gradient           0.002267      0.000300      NO
         Displacement       0.014736      0.001200      NO
         Energy change     -0.000481      0.000001      NO


 New Cartesian Coordinates Obtained by Inverse Iteration

 Displacement from previous Coordinates is:  0.016866
 ----------------------------------------------------------------
             Standard Nuclear Orientation (Angstroms)
    I     Atom           X                Y                Z
 ----------------------------------------------------------------
    1      C       1.1276221146     0.6973864982    -0.0003376156
    2      N       0.0003904497     1.4094305864     0.0009863362
    3      C      -1.1274626471     0.6977197971     0.0020110850
    4      C      -1.1278113170    -0.6971857156     0.0002001602
    5      H      -2.0679089266     1.2580766572     0.0005680494
    6      H      -2.0685435067    -1.2570650492    -0.0017452826
    7      N      -0.0002931314    -1.4094377146    -0.0005528277
    8      C       1.1272881958    -0.6979377273    -0.0020241278
    9      H       2.0680532557    -1.2578367869    -0.0006914948
   10      H       2.0686455131     1.2568394546     0.0016157189
 ----------------------------------------------------------------
 Nuclear Repulsion Energy =   208.8331264446 hartrees
 There are       21 alpha and       21 beta electrons
 Applying Cartesian multipole field
    Component          Value
    ---------          -----
     (2,0,0)        1.00000E-11
     (0,2,0)        2.00000E-11
     (0,0,2)       -3.00000E-10
 Nucleus-field energy     =     0.0000000050 hartrees
 Requested basis set is cc-pVDZ
 There are 48 shells and 104 basis functions
 tim1(1): 
  3.738999999995940E-003
 tim1(2): 
  0.000000000000000E+000
 A cutoff of  1.0D-11 yielded   1157 shell pairs
 There are      5517 function pairs (      6192 Cartesian)
 Smallest overlap matrix eigenvalue = 1.79E-03
 Guess MOs from SCF MO coefficient file
 Reading MOs from coefficient file
 Reading MOs from coefficient file
 A restricted hybrid HF-DFT SCF calculation will be
 performed using Pulay DIIS extrapolation
 Exchange:     0.2500 Hartree-Fock + 0.7500 PBE
 Correlation:  1.0000 PBE
 Using Euler-Maclaurin-Lebedev (75,302) quadrature formula
 SCF converges when DIIS error is below 1.0E-08
Geometry optimization detected.  Setting ReadMinima to 0
Setting SaveMinima to 0
 using 4 threads for integral computing 
 -------------------------------------------------------
 OpenMP BLAS3 based DFT computing Module                
 Release: version 1.0, May 2013, Q-Chem Inc. Pittsburgh 
 -------------------------------------------------------
 ---------------------------------------
  Cycle       Energy         DIIS Error
 ---------------------------------------
    1    -264.0265207515      2.23E-04
    2    -264.0285477125      3.92E-05
    3    -264.0285465857      5.27E-05
    4    -264.0285498657      6.47E-06
    5    -264.0285499158      1.56E-06
    6    -264.0285499186      7.67E-07
    7    -264.0285499192      4.07E-07
    8    -264.0285499195      3.28E-08
    9    -264.0285499194      3.46E-08
   10    -264.0285499194      5.25E-09 Convergence criterion met
 ---------------------------------------
 SCF time:  CPU 23.56 s  wall 5.90 s
 SCF   energy in the final basis set = -264.0285499194
 Total energy in the final basis set = -264.0285499194
 
 --------------------------------------------------------------
 
                    Orbital Energies (a.u.)
 --------------------------------------------------------------
 
 Alpha MOs
 -- Occupied --
-14.415 -14.415 -10.284 -10.284 -10.283 -10.283  -1.018  -0.943
 -0.805  -0.683  -0.680  -0.546  -0.536  -0.503  -0.451  -0.446
 -0.401  -0.347  -0.329  -0.291  -0.263
 -- Virtual --
 -0.049  -0.024   0.085   0.101   0.132   0.135   0.140   0.182
  0.279   0.307   0.308   0.389   0.427   0.443   0.456   0.461
  0.497   0.513   0.533   0.546   0.550   0.575   0.596   0.623
  0.683   0.696   0.729   0.782   0.837   0.864   0.871   0.872
  0.894   0.912   0.914   0.960   0.987   1.025   1.057   1.098
  1.153   1.162   1.177   1.180   1.262   1.354   1.387   1.489
  1.541   1.554   1.571   1.573   1.620   1.630   1.640   1.644
  1.682   1.700   1.761   1.832   1.833   1.911   1.927   1.965
  1.990   2.054   2.141   2.164   2.199   2.208   2.230   2.383
  2.464   2.522   2.532   2.547   2.566   2.787   2.828   2.867
  2.885   2.959   3.411
 --------------------------------------------------------------
 
          Ground-State Mulliken Net Atomic Charges

     Atom                 Charge (a.u.)
  ----------------------------------------
      1 C                     0.061266
      2 N                    -0.189693
      3 C                     0.061296
      4 C                     0.061298
      5 H                     0.033561
      6 H                     0.033564
      7 N                    -0.189697
      8 C                     0.061265
      9 H                     0.033572
     10 H                     0.033568
  ----------------------------------------
  Sum of atomic charges =     0.000000

 -----------------------------------------------------------------
                    Cartesian Multipole Moments
 -----------------------------------------------------------------
    Charge (ESU x 10^10)
                 0.0000
    Dipole Moment (Debye)
         X       0.0006      Y       0.0000      Z      -0.0007
       Tot       0.0009
    Quadrupole Moments (Debye-Ang)
        XX     -26.9182     XY      -0.0031     YY     -39.9279
        XZ       0.0072     YZ      -0.0013     ZZ     -35.4755
    Octopole Moments (Debye-Ang^2)
       XXX       0.0068    XXY      -0.0001    XYY      -0.0027
       YYY       0.0006    XXZ      -0.0021    XYZ       0.0001
       YYZ      -0.0043    XZZ       0.0021    YZZ       0.0002
       ZZZ      -0.0039
    Hexadecapole Moments (Debye-Ang^3)
      XXXX    -229.9141   XXXY       0.0051   XXYY     -69.6934
      XYYY      -0.0189   YYYY    -286.3206   XXXZ       0.1175
      XXYZ      -0.0116   XYYZ       0.0396   YYYZ      -0.1027
      XXZZ     -52.6963   XYZZ       0.0009   YYZZ     -48.8761
      XZZZ       0.0825   YZZZ      -0.0888   ZZZZ     -35.0943
 -----------------------------------------------------------------
 Calculating analytic gradient of the SCF energy
 Gradient of SCF Energy
            1           2           3           4           5           6
    1  -0.0002654   0.0001211   0.0001137   0.0001036  -0.0000091  -0.0000123
    2   0.0005347  -0.0001383   0.0002059  -0.0002083   0.0000585  -0.0000571
    3  -0.0000683  -0.0001639   0.0004428   0.0000135  -0.0001390  -0.0001269
            7           8           9          10
    1   0.0001224  -0.0002622   0.0000462   0.0000420
    2   0.0001380  -0.0005331  -0.0000284   0.0000281
    3   0.0002255  -0.0004478   0.0001314   0.0001326
 Max gradient component =       5.347E-04
 RMS gradient           =       2.197E-04
 Gradient time:  CPU 6.40 s  wall 1.60 s
 Geometry Optimization Parameters
   NAtoms,    NIC,     NZ,  NCons,   NDum,   NFix, NCnnct, MaxDiis
       10      60       0       0       0       0       0       0

 Cartesian Hessian Update
 Hessian Updated using BFGS Update


** GEOMETRY OPTIMIZATION IN DELOCALIZED INTERNAL COORDINATES **
   Searching for a Minimum

   Optimization Cycle:   4

                       Coordinates (Angstroms)
     ATOM                X               Y               Z
      1  C         1.1276221146    0.6973864982   -0.0003376156
      2  N         0.0003904497    1.4094305864    0.0009863362
      3  C        -1.1274626471    0.6977197971    0.0020110850
      4  C        -1.1278113170   -0.6971857156    0.0002001602
      5  H        -2.0679089266    1.2580766572    0.0005680494
      6  H        -2.0685435067   -1.2570650492   -0.0017452826
      7  N        -0.0002931314   -1.4094377146   -0.0005528277
      8  C         1.1272881958   -0.6979377273   -0.0020241278
      9  H         2.0680532557   -1.2578367869   -0.0006914948
     10  H         2.0686455131    1.2568394546    0.0016157189
   Point Group: c1    Number of degrees of freedom:    24


   Energy is   -264.028549919

 Hessian Updated using BFGS Update

 24 Hessian modes will be used to form the next step
  Hessian Eigenvalues:
     0.018186    0.020135    0.020632    0.020698    0.020965    0.021258
     0.026323    0.158986    0.159957    0.159982    0.163087    0.219915
     0.221224    0.226897    0.335633    0.336615    0.337536    0.339213
     0.408333    0.433204    0.458991    0.485771    0.490060    0.527056

 Minimum Search - Taking Simple RFO Step
 Searching for Lamda that Minimizes Along All modes
 Value Taken    Lamda =  -0.00000537
 Step Taken.  Stepsize is  0.012985

                             Maximum     Tolerance    Cnvgd?
         Gradient           0.000357      0.000300      NO
         Displacement       0.011590      0.001200      NO
         Energy change     -0.000013      0.000001      NO


 New Cartesian Coordinates Obtained by Inverse Iteration

 Displacement from previous Coordinates is:  0.007457
 ----------------------------------------------------------------
             Standard Nuclear Orientation (Angstroms)
    I     Atom           X                Y                Z
 ----------------------------------------------------------------
    1      C       1.1276619795     0.6972497247     0.0010154899
    2      N       0.0003754648     1.4096056405     0.0012996769
    3      C      -1.1274268638     0.6976942013    -0.0000096771
    4      C      -1.1277668440    -0.6971515966    -0.0010360756
    5      H      -2.0679064602     1.2579154485     0.0014426315
    6      H      -2.0685223114    -1.2568954543    -0.0006506760
    7      N      -0.0003066080    -1.4096225904    -0.0012954192
    8      C       1.1273328895    -0.6978097226    -0.0000276824
    9      H       2.0679726159    -1.2577907709    -0.0014218187
   10      H       2.0685661378     1.2567951197     0.0007135518
 ----------------------------------------------------------------
 Nuclear Repulsion Energy =   208.8285755373 hartrees
 There are       21 alpha and       21 beta electrons
 Applying Cartesian multipole field
    Component          Value
    ---------          -----
     (2,0,0)        1.00000E-11
     (0,2,0)        2.00000E-11
     (0,0,2)       -3.00000E-10
 Nucleus-field energy     =     0.0000000050 hartrees
 Requested basis set is cc-pVDZ
 There are 48 shells and 104 basis functions
 tim1(1): 
  4.273000000011962E-003
 tim1(2): 
  0.000000000000000E+000
 A cutoff of  1.0D-11 yielded   1157 shell pairs
 There are      5517 function pairs (      6192 Cartesian)
 Smallest overlap matrix eigenvalue = 1.79E-03
 Guess MOs from SCF MO coefficient file
 Reading MOs from coefficient file
 Reading MOs from coefficient file
 A restricted hybrid HF-DFT SCF calculation will be
 performed using Pulay DIIS extrapolation
 Exchange:     0.2500 Hartree-Fock + 0.7500 PBE
 Correlation:  1.0000 PBE
 Using Euler-Maclaurin-Lebedev (75,302) quadrature formula
 SCF converges when DIIS error is below 1.0E-08
Geometry optimization detected.  Setting ReadMinima to 0
Setting SaveMinima to 0
 using 4 threads for integral computing 
 -------------------------------------------------------
 OpenMP BLAS3 based DFT computing Module                
 Release: version 1.0, May 2013, Q-Chem Inc. Pittsburgh 
 -------------------------------------------------------
 ---------------------------------------
  Cycle       Energy         DIIS Error
 ---------------------------------------
    1    -264.0283494790      8.88E-05
    2    -264.0285514849      6.55E-06
    3    -264.0285515028      7.99E-06
    4    -264.0285515768      1.33E-06
    5    -264.0285515786      4.31E-07
    6    -264.0285515787      1.04E-07
    7    -264.0285515787      5.23E-08
    8    -264.0285515788      1.56E-08
    9    -264.0285515788      3.50E-09 Convergence criterion met
 ---------------------------------------
 SCF time:  CPU 20.75 s  wall 5.20 s
 SCF   energy in the final basis set = -264.0285515788
 Total energy in the final basis set = -264.0285515788
 
 --------------------------------------------------------------
 
                    Orbital Energies (a.u.)
 --------------------------------------------------------------
 
 Alpha MOs
 -- Occupied --
-14.415 -14.415 -10.284 -10.284 -10.283 -10.283  -1.018  -0.942
 -0.805  -0.684  -0.680  -0.546  -0.536  -0.503  -0.451  -0.446
 -0.401  -0.347  -0.329  -0.291  -0.263
 -- Virtual --
 -0.049  -0.024   0.085   0.101   0.132   0.135   0.140   0.182
  0.279   0.307   0.307   0.389   0.427   0.443   0.456   0.461
  0.497   0.513   0.533   0.546   0.550   0.575   0.596   0.623
  0.683   0.696   0.729   0.782   0.837   0.864   0.871   0.872
  0.894   0.912   0.914   0.960   0.987   1.025   1.057   1.098
  1.153   1.162   1.177   1.180   1.262   1.354   1.387   1.489
  1.541   1.554   1.571   1.573   1.620   1.630   1.640   1.643
  1.682   1.700   1.761   1.832   1.833   1.911   1.927   1.965
  1.990   2.054   2.141   2.164   2.199   2.208   2.230   2.383
  2.464   2.522   2.532   2.547   2.566   2.787   2.828   2.867
  2.885   2.959   3.411
 --------------------------------------------------------------
 
          Ground-State Mulliken Net Atomic Charges

     Atom                 Charge (a.u.)
  ----------------------------------------
      1 C                     0.061339
      2 N                    -0.189791
      3 C                     0.061353
      4 C                     0.061360
      5 H                     0.033547
      6 H                     0.033545
      7 N                    -0.189798
      8 C                     0.061346
      9 H                     0.033549
     10 H                     0.033549
  ----------------------------------------
  Sum of atomic charges =    -0.000000

 -----------------------------------------------------------------
                    Cartesian Multipole Moments
 -----------------------------------------------------------------
    Charge (ESU x 10^10)
                -0.0000
    Dipole Moment (Debye)
         X       0.0003      Y       0.0000      Z       0.0000
       Tot       0.0003
    Quadrupole Moments (Debye-Ang)
        XX     -26.9178     XY      -0.0032     YY     -39.9297
        XZ      -0.0040     YZ      -0.0043     ZZ     -35.4757
    Octopole Moments (Debye-Ang^2)
       XXX       0.0031    XXY       0.0001    XYY      -0.0015
       YYY       0.0009    XXZ       0.0006    XYZ       0.0001
       YYZ       0.0002    XZZ       0.0012    YZZ       0.0002
       ZZZ       0.0007
    Hexadecapole Moments (Debye-Ang^3)
      XXXX    -229.9053   XXXY       0.0051   XXYY     -69.6961
      XYYY      -0.0185   YYYY    -286.3486   XXXZ      -0.0547
      XXYZ      -0.0147   XYYZ      -0.0186   YYYZ      -0.1220
      XXZZ     -52.6943   XYZZ       0.0010   YYZZ     -48.8790
      XZZZ      -0.0345   YZZZ      -0.0958   ZZZZ     -35.0944
 -----------------------------------------------------------------
 Calculating analytic gradient of the SCF energy
 Gradient of SCF Energy
            1           2           3           4           5           6
    1  -0.0001277   0.0000767   0.0000339   0.0000242   0.0000125   0.0000157
    2   0.0002504   0.0000496   0.0000858  -0.0000853   0.0000401  -0.0000353
    3   0.0000672   0.0000509  -0.0001765  -0.0000713   0.0000693   0.0000658
            7           8           9          10
    1   0.0000766  -0.0001166   0.0000021   0.0000027
    2  -0.0000577  -0.0002506  -0.0000234   0.0000263
    3  -0.0000464   0.0001700  -0.0000664  -0.0000627
 Max gradient component =       2.506E-04
 RMS gradient           =       9.758E-05
 Gradient time:  CPU 7.17 s  wall 1.81 s
 Geometry Optimization Parameters
   NAtoms,    NIC,     NZ,  NCons,   NDum,   NFix, NCnnct, MaxDiis
       10      60       0       0       0       0       0       0

 Cartesian Hessian Update
 Hessian Updated using BFGS Update


** GEOMETRY OPTIMIZATION IN DELOCALIZED INTERNAL COORDINATES **
   Searching for a Minimum

   Optimization Cycle:   5

                       Coordinates (Angstroms)
     ATOM                X               Y               Z
      1  C         1.1276619795    0.6972497247    0.0010154899
      2  N         0.0003754648    1.4096056405    0.0012996769
      3  C        -1.1274268638    0.6976942013   -0.0000096771
      4  C        -1.1277668440   -0.6971515966   -0.0010360756
      5  H        -2.0679064602    1.2579154485    0.0014426315
      6  H        -2.0685223114   -1.2568954543   -0.0006506760
      7  N        -0.0003066080   -1.4096225904   -0.0012954192
      8  C         1.1273328895   -0.6978097226   -0.0000276824
      9  H         2.0679726159   -1.2577907709   -0.0014218187
     10  H         2.0685661378    1.2567951197    0.0007135518
   Point Group: c1    Number of degrees of freedom:    24


   Energy is   -264.028551579

 Hessian Updated using BFGS Update

 24 Hessian modes will be used to form the next step
  Hessian Eigenvalues:
     0.018173    0.020034    0.020631    0.020700    0.020956    0.021256
     0.042619    0.158881    0.159953    0.159964    0.161843    0.219919
     0.223515    0.226895    0.335346    0.336537    0.336624    0.338588
     0.391217    0.408387    0.458995    0.467407    0.489527    0.523520

 Minimum Search - Taking Simple RFO Step
 Searching for Lamda that Minimizes Along All modes
 Value Taken    Lamda =  -0.00000117
 Step Taken.  Stepsize is  0.004383

                             Maximum     Tolerance    Cnvgd?
         Gradient           0.000236      0.000300     YES
         Displacement       0.004188      0.001200      NO
         Energy change     -0.000002      0.000001      NO


 New Cartesian Coordinates Obtained by Inverse Iteration

 Displacement from previous Coordinates is:  0.003103
 ----------------------------------------------------------------
             Standard Nuclear Orientation (Angstroms)
    I     Atom           X                Y                Z
 ----------------------------------------------------------------
    1      C       1.1278406921     0.6970792226     0.0004923893
    2      N       0.0003656407     1.4093563627     0.0012266221
    3      C      -1.1275640361     0.6975637604     0.0006459994
    4      C      -1.1279018459    -0.6970177831    -0.0004447158
    5      H      -2.0681311713     1.2575930754     0.0011103403
    6      H      -2.0687390968    -1.2565939494    -0.0009902645
    7      N      -0.0003196697    -1.4093566776    -0.0012902426
    8      C       1.1275006932    -0.6976257087    -0.0006374585
    9      H       2.0681566240    -1.2575247135    -0.0011064590
   10      H       2.0687721697     1.2565164113     0.0010237904
 ----------------------------------------------------------------
 Nuclear Repulsion Energy =   208.8347603862 hartrees
 There are       21 alpha and       21 beta electrons
 Applying Cartesian multipole field
    Component          Value
    ---------          -----
     (2,0,0)        1.00000E-11
     (0,2,0)        2.00000E-11
     (0,0,2)       -3.00000E-10
 Nucleus-field energy     =     0.0000000050 hartrees
 Requested basis set is cc-pVDZ
 There are 48 shells and 104 basis functions
 tim1(1): 
  3.865999999987935E-003
 tim1(2): 
  0.000000000000000E+000
 A cutoff of  1.0D-11 yielded   1157 shell pairs
 There are      5517 function pairs (      6192 Cartesian)
 Smallest overlap matrix eigenvalue = 1.79E-03
 Guess MOs from SCF MO coefficient file
 Reading MOs from coefficient file
 Reading MOs from coefficient file
 A restricted hybrid HF-DFT SCF calculation will be
 performed using Pulay DIIS extrapolation
 Exchange:     0.2500 Hartree-Fock + 0.7500 PBE
 Correlation:  1.0000 PBE
 Using Euler-Maclaurin-Lebedev (75,302) quadrature formula
 SCF converges when DIIS error is below 1.0E-08
Geometry optimization detected.  Setting ReadMinima to 0
Setting SaveMinima to 0
 using 4 threads for integral computing 
 -------------------------------------------------------
 OpenMP BLAS3 based DFT computing Module                
 Release: version 1.0, May 2013, Q-Chem Inc. Pittsburgh 
 -------------------------------------------------------
 ---------------------------------------
  Cycle       Energy         DIIS Error
 ---------------------------------------
    1    -264.0287010658      3.71E-05
    2    -264.0285520299      5.47E-06
    3    -264.0285519958      8.08E-06
    4    -264.0285520724      5.76E-07
    5    -264.0285520724      2.23E-07
    6    -264.0285520726      9.30E-08
    7    -264.0285520725      5.37E-08
    8    -264.0285520723      3.12E-09 Convergence criterion met
 ---------------------------------------
 SCF time:  CPU 19.14 s  wall 4.80 s
 SCF   energy in the final basis set = -264.0285520723
 Total energy in the final basis set = -264.0285520723
 
 --------------------------------------------------------------
 
                    Orbital Energies (a.u.)
 --------------------------------------------------------------
 
 Alpha MOs
 -- Occupied --
-14.415 -14.415 -10.284 -10.284 -10.283 -10.283  -1.017  -0.942
 -0.805  -0.684  -0.680  -0.546  -0.536  -0.503  -0.451  -0.446
 -0.401  -0.347  -0.329  -0.291  -0.263
 -- Virtual --
 -0.049  -0.024   0.085   0.101   0.132   0.135   0.140   0.182
  0.279   0.307   0.307   0.390   0.427   0.443   0.456   0.461
  0.497   0.513   0.533   0.547   0.550   0.575   0.596   0.623
  0.684   0.696   0.729   0.782   0.837   0.864   0.871   0.872
  0.894   0.912   0.914   0.960   0.987   1.025   1.057   1.099
  1.153   1.162   1.177   1.180   1.262   1.354   1.387   1.489
  1.541   1.554   1.571   1.573   1.620   1.630   1.640   1.644
  1.683   1.700   1.761   1.832   1.833   1.911   1.927   1.966
  1.990   2.054   2.141   2.164   2.199   2.208   2.230   2.383
  2.464   2.522   2.532   2.547   2.566   2.787   2.828   2.867
  2.885   2.959   3.412
 --------------------------------------------------------------
 
          Ground-State Mulliken Net Atomic Charges

     Atom                 Charge (a.u.)
  ----------------------------------------
      1 C                     0.061414
      2 N                    -0.189902
      3 C                     0.061420
      4 C                     0.061419
      5 H                     0.033534
      6 H                     0.033534
      7 N                    -0.189901
      8 C                     0.061413
      9 H                     0.033534
     10 H                     0.033534
  ----------------------------------------
  Sum of atomic charges =     0.000000

 -----------------------------------------------------------------
                    Cartesian Multipole Moments
 -----------------------------------------------------------------
    Charge (ESU x 10^10)
                -0.0000
    Dipole Moment (Debye)
         X       0.0002      Y      -0.0000      Z       0.0001
       Tot       0.0002
    Quadrupole Moments (Debye-Ang)
        XX     -26.9131     XY      -0.0032     YY     -39.9316
        XZ      -0.0000     YZ      -0.0041     ZZ     -35.4748
    Octopole Moments (Debye-Ang^2)
       XXX       0.0018    XXY       0.0000    XYY      -0.0010
       YYY      -0.0000    XXZ       0.0001    XYZ       0.0000
       YYZ       0.0005    XZZ       0.0007    YZZ       0.0000
       ZZZ       0.0000
    Hexadecapole Moments (Debye-Ang^3)
      XXXX    -229.9230   XXXY       0.0050   XXYY     -69.6982
      XYYY      -0.0188   YYYY    -286.2655   XXXZ       0.0073
      XXYZ      -0.0149   XYYZ       0.0023   YYYZ      -0.1211
      XXZZ     -52.7010   XYZZ       0.0009   YYZZ     -48.8650
      XZZZ       0.0077   YZZZ      -0.0957   ZZZZ     -35.0924
 -----------------------------------------------------------------
 Calculating analytic gradient of the SCF energy
 Gradient of SCF Energy
            1           2           3           4           5           6
    1   0.0000217   0.0000508  -0.0000801  -0.0000786   0.0000027   0.0000028
    2  -0.0000155   0.0000177  -0.0001128   0.0001125  -0.0000105   0.0000100
    3  -0.0000313   0.0000212  -0.0000177   0.0000441  -0.0000047  -0.0000068
            7           8           9          10
    1   0.0000489   0.0000211   0.0000051   0.0000058
    2  -0.0000176   0.0000167   0.0000186  -0.0000189
    3  -0.0000326   0.0000175   0.0000056   0.0000048
 Max gradient component =       1.128E-04
 RMS gradient           =       4.130E-05
 Gradient time:  CPU 6.40 s  wall 1.60 s
 Geometry Optimization Parameters
   NAtoms,    NIC,     NZ,  NCons,   NDum,   NFix, NCnnct, MaxDiis
       10      60       0       0       0       0       0       0

 Cartesian Hessian Update
 Hessian Updated using BFGS Update


** GEOMETRY OPTIMIZATION IN DELOCALIZED INTERNAL COORDINATES **
   Searching for a Minimum

   Optimization Cycle:   6

                       Coordinates (Angstroms)
     ATOM                X               Y               Z
      1  C         1.1278406921    0.6970792226    0.0004923893
      2  N         0.0003656407    1.4093563627    0.0012266221
      3  C        -1.1275640361    0.6975637604    0.0006459994
      4  C        -1.1279018459   -0.6970177831   -0.0004447158
      5  H        -2.0681311713    1.2575930754    0.0011103403
      6  H        -2.0687390968   -1.2565939494   -0.0009902645
      7  N        -0.0003196697   -1.4093566776   -0.0012902426
      8  C         1.1275006932   -0.6976257087   -0.0006374585
      9  H         2.0681566240   -1.2575247135   -0.0011064590
     10  H         2.0687721697    1.2565164113    0.0010237904
   Point Group: c1    Number of degrees of freedom:    24


   Energy is   -264.028552072

 Hessian Updated using BFGS Update

 24 Hessian modes will be used to form the next step
  Hessian Eigenvalues:
     0.018190    0.020388    0.020631    0.020771    0.021030    0.021263
     0.040963    0.158231    0.159953    0.159968    0.164930    0.219920
     0.222739    0.226897    0.335549    0.336611    0.337329    0.339087
     0.406749    0.442463    0.458990    0.469297    0.489510    0.534624

 Minimum Search - Taking Simple RFO Step
 Searching for Lamda that Minimizes Along All modes
 Value Taken    Lamda =   0.00000000
 Step Taken.  Stepsize is  0.001212

                             Maximum     Tolerance    Cnvgd?
         Gradient           0.000101      0.000300     YES
         Displacement       0.001037      0.001200     YES
         Energy change     -0.000000      0.000001     YES


                       Distance Matrix (Angstroms)
             C (  1)   N (  2)   C (  3)   C (  4)   H (  5)   H (  6)
   N (  2)  1.333619
   C (  3)  2.255405  1.333745
   C (  4)  2.651770  2.389519  1.394582
   H (  5)  3.244752  2.074057  1.094669  2.168995
   H (  6)  3.746327  3.374684  2.168996  1.094669  2.514188
   N (  7)  2.389523  2.818714  2.389518  1.333742  3.374681  2.074053
   C (  8)  1.394705  2.389521  2.651768  2.255403  3.746324  3.244749
   H (  9)  2.169026  3.374614  3.746332  3.244836  4.840940  4.136896
   H ( 10)  1.094679  2.074046  3.244841  3.746335  4.136903  4.840943
             N (  7)   C (  8)   H (  9)
   C (  8)  1.333619
   H (  9)  2.074041  1.094678
   H ( 10)  3.374615  2.169024  2.514042
 
 Final energy is   -264.028552072337     


 ******************************
 **  OPTIMIZATION CONVERGED  **
 ******************************

                       Coordinates (Angstroms)
     ATOM                X               Y               Z
      1  C         1.1278406921    0.6970792226    0.0004923893
      2  N         0.0003656407    1.4093563627    0.0012266221
      3  C        -1.1275640361    0.6975637604    0.0006459994
      4  C        -1.1279018459   -0.6970177831   -0.0004447158
      5  H        -2.0681311713    1.2575930754    0.0011103403
      6  H        -2.0687390968   -1.2565939494   -0.0009902645
      7  N        -0.0003196697   -1.4093566776   -0.0012902426
      8  C         1.1275006932   -0.6976257087   -0.0006374585
      9  H         2.0681566240   -1.2575247135   -0.0011064590
     10  H         2.0687721697    1.2565164113    0.0010237904

Z-matrix Print:
$molecule
0 1
N 
C  1 1.333619
H  2 1.094678 1 116.983248
C  1 1.333742 2 115.463028 3 -179.988241 0
H  4 1.094669 1 116.975065 2 -179.997831 0
C  4 1.394582 1 122.268381 2 -0.018297 0
H  6 1.094669 4 120.756402 1 -179.986952 0
N  6 1.333745 4 122.268319 1 0.015868 0
C  8 1.333619 6 115.463087 4 -0.009568 0
H  9 1.094679 8 116.983628 6 179.995374 0
$end

 
 --------------------------------------------------------------
 
                    Orbital Energies (a.u.)
 --------------------------------------------------------------
 
 Alpha MOs
 -- Occupied --
-14.415 -14.415 -10.284 -10.284 -10.283 -10.283  -1.017  -0.942
 -0.805  -0.684  -0.680  -0.546  -0.536  -0.503  -0.451  -0.446
 -0.401  -0.347  -0.329  -0.291  -0.263
 -- Virtual --
 -0.049  -0.024   0.085   0.101   0.132   0.135   0.140   0.182
  0.279   0.307   0.307   0.390   0.427   0.443   0.456   0.461
  0.497   0.513   0.533   0.547   0.550   0.575   0.596   0.623
  0.684   0.696   0.729   0.782   0.837   0.864   0.871   0.872
  0.894   0.912   0.914   0.960   0.987   1.025   1.057   1.099
  1.153   1.162   1.177   1.180   1.262   1.354   1.387   1.489
  1.541   1.554   1.571   1.573   1.620   1.630   1.640   1.644
  1.683   1.700   1.761   1.832   1.833   1.911   1.927   1.966
  1.990   2.054   2.141   2.164   2.199   2.208   2.230   2.383
  2.464   2.522   2.532   2.547   2.566   2.787   2.828   2.867
  2.885   2.959   3.412
 --------------------------------------------------------------
 
          Ground-State Mulliken Net Atomic Charges

     Atom                 Charge (a.u.)
  ----------------------------------------
      1 C                     0.061414
      2 N                    -0.189902
      3 C                     0.061420
      4 C                     0.061419
      5 H                     0.033534
      6 H                     0.033534
      7 N                    -0.189901
      8 C                     0.061413
      9 H                     0.033534
     10 H                     0.033534
  ----------------------------------------
  Sum of atomic charges =     0.000000

 -----------------------------------------------------------------
                    Cartesian Multipole Moments
 -----------------------------------------------------------------
    Charge (ESU x 10^10)
                -0.0000
    Dipole Moment (Debye)
         X       0.0002      Y      -0.0000      Z       0.0001
       Tot       0.0002
    Quadrupole Moments (Debye-Ang)
        XX     -26.9131     XY      -0.0032     YY     -39.9316
        XZ      -0.0000     YZ      -0.0041     ZZ     -35.4748
    Octopole Moments (Debye-Ang^2)
       XXX       0.0018    XXY       0.0000    XYY      -0.0010
       YYY      -0.0000    XXZ       0.0001    XYZ       0.0000
       YYZ       0.0005    XZZ       0.0007    YZZ       0.0000
       ZZZ       0.0000
    Hexadecapole Moments (Debye-Ang^3)
      XXXX    -229.9230   XXXY       0.0050   XXYY     -69.6982
      XYYY      -0.0188   YYYY    -286.2655   XXXZ       0.0073
      XXYZ      -0.0149   XYYZ       0.0023   YYYZ      -0.1211
      XXZZ     -52.7010   XYZZ       0.0009   YYZZ     -48.8650
      XZZZ       0.0077   YZZZ      -0.0957   ZZZZ     -35.0924
 -----------------------------------------------------------------
Archival summary:
1\1\theochem\OPT\ProcedureUnspecified\BasisUnspecified\244\ehrmaier\TueOct2217:22:072019TueOct2217:22:072019\0\\#,OPT,ProcedureUnspecified,BasisUnspecified,\\0,1\N\C,1,1.33362\H,2,1.09468,1,116.983\C,1,1.33374,2,115.463,3,-179.988,0\H,4,1.09467,1,116.975,2,-179.998,0\C,4,1.39458,1,122.268,2,-0.0182966,0\H,6,1.09467,4,120.756,1,-179.987,0\N,6,1.33374,4,122.268,1,0.0158676,0\C,8,1.33362,6,115.463,4,-0.00956813,0\H,9,1.09468,8,116.984,6,179.995,0\\\@

 Total job time:  47.07s(wall), 187.76s(cpu) 
 Tue Oct 22 17:22:07 2019

======= MOLDEN-FORMATTED INPUT FILE FOLLOWS =======
[Molden Format]
[Atoms] (Angs)
  C      1    6      1.12784069      0.69707922      0.00049239
  N      2    7      0.00036564      1.40935636      0.00122662
  C      3    6     -1.12756404      0.69756376      0.00064600
  C      4    6     -1.12790185     -0.69701778     -0.00044472
  H      5    1     -2.06813117      1.25759308      0.00111034
  H      6    1     -2.06873910     -1.25659395     -0.00099026
  N      7    7     -0.00031967     -1.40935668     -0.00129024
  C      8    6      1.12750069     -0.69762571     -0.00063746
  H      9    1      2.06815662     -1.25752471     -0.00110646
  H     10    1      2.06877217      1.25651641      0.00102379
[GEOCONV]
energy
     -264.0194316415
     -264.0280557262
     -264.0285369748
     -264.0285499194
     -264.0285515788
     -264.0285520723
max-force
        0.0535581299
        0.0113227204
        0.0022673093
        0.0003573354
        0.0002361481
        0.0001008382
max-step
        0.1263556829
        0.0467156310
        0.0147360090
        0.0115900527
        0.0041876302
        0.0010373338
[GEOMETRIES] (XYZ)
  10
Step 1
  C      1.14485646      0.70294302      0.01171317
  N      0.00183188      1.47215580     -0.00381187
  C     -1.14561384      0.70107529     -0.00269281
  C     -1.14676415     -0.70101801     -0.01322582
  H     -2.09663170      1.25416105      0.00641380
  H     -2.09720807     -1.25142522     -0.00324142
  N      0.00067398     -1.47444609      0.01550391
  C      1.14565861     -0.70381343      0.00357167
  H      2.09662556     -1.25667865     -0.01228987
  H      2.09655128      1.25703623     -0.00191078
  10
Step 2
  C      1.11932253      0.69412314     -0.00094056
  N      0.00096671      1.42555730      0.00105889
  C     -1.11980552      0.69374469      0.00141446
  C     -1.12009656     -0.69294878      0.00024886
  H     -2.06032132      1.25127442      0.00084621
  H     -2.06064718     -1.25037830     -0.00220528
  N      0.00032988     -1.42560721      0.00090410
  C      1.11918342     -0.69452134     -0.00211001
  H      2.06015207     -1.25139246     -0.00149218
  H      2.06089598      1.25013854      0.00230552
  10
Step 3
  C      1.12813237      0.69618673      0.00144657
  N      0.00047708      1.40773486      0.00141850
  C     -1.12816864      0.69630628     -0.00062139
  C     -1.12845822     -0.69568578     -0.00099288
  H     -2.06904675      1.25541368      0.00149625
  H     -2.06957092     -1.25459960     -0.00000368
  N     -0.00021013     -1.40755724     -0.00250119
  C      1.12773612     -0.69664791      0.00078147
  H      2.06916773     -1.25501626     -0.00139759
  H      2.06992137      1.25385524      0.00040393
  10
Step 4
  C      1.12762211      0.69738650     -0.00033762
  N      0.00039045      1.40943059      0.00098634
  C     -1.12746265      0.69771980      0.00201109
  C     -1.12781132     -0.69718572      0.00020016
  H     -2.06790893      1.25807666      0.00056805
  H     -2.06854351     -1.25706505     -0.00174528
  N     -0.00029313     -1.40943771     -0.00055283
  C      1.12728820     -0.69793773     -0.00202413
  H      2.06805326     -1.25783679     -0.00069149
  H      2.06864551      1.25683945      0.00161572
  10
Step 5
  C      1.12766198      0.69724972      0.00101549
  N      0.00037546      1.40960564      0.00129968
  C     -1.12742686      0.69769420     -0.00000968
  C     -1.12776684     -0.69715160     -0.00103608
  H     -2.06790646      1.25791545      0.00144263
  H     -2.06852231     -1.25689545     -0.00065068
  N     -0.00030661     -1.40962259     -0.00129542
  C      1.12733289     -0.69780972     -0.00002768
  H      2.06797262     -1.25779077     -0.00142182
  H      2.06856614      1.25679512      0.00071355
  10
Step 6
  C      1.12784069      0.69707922      0.00049239
  N      0.00036564      1.40935636      0.00122662
  C     -1.12756404      0.69756376      0.00064600
  C     -1.12790185     -0.69701778     -0.00044472
  H     -2.06813117      1.25759308      0.00111034
  H     -2.06873910     -1.25659395     -0.00099026
  N     -0.00031967     -1.40935668     -0.00129024
  C      1.12750069     -0.69762571     -0.00063746
  H      2.06815662     -1.25752471     -0.00110646
  H      2.06877217      1.25651641      0.00102379

======= END OF MOLDEN-FORMATTED INPUT FILE =======


        *************************************************************
        *                                                           *
        *  Thank you very much for using Q-Chem.  Have a nice day.  *
        *                                                           *
        *************************************************************


 
User input: 2 of 2 
 
                  Welcome to Q-Chem
     A Quantum Leap Into The Future Of Chemistry


 Q-Chem 4.3, Q-Chem, Inc., Pleasanton, CA (2015)

 Y. Shao,  Z. Gan,  E. Epifanovsky,  A. T. B. Gilbert,  M. Wormit,  
 J. Kussmann,  A. W. Lange,  A. Behn,  J. Deng,  X. Feng,  D. Ghosh,  
 M. Goldey,  P. R. Horn,  L. D. Jacobson,  I. Kaliman,  R. Z. Khaliullin,  
 T. Kus,  A. Landau,  J. Liu,  E. I. Proynov,  Y. M. Rhee,  R. M. Richard,  
 M. A. Rohrdanz,  R. P. Steele,  E. J. Sundstrom,  H. L. Woodcock III,  
 P. M. Zimmerman,  D. Zuev,  B. Albrecht,  E. Alguire,  B. Austin,  
 S. A. Baeppler,  G. J. O. Beran,  Y. A. Bernard,  E. Berquist,  
 K. Brandhorst,  K. B. Bravaya,  S. T. Brown,  D. Casanova,  C.-M. Chang,  
 Y. Chen,  S. H. Chien,  K. D. Closser,  D. L. Crittenden,  M. Diedenhofen,  
 R. A. DiStasio Jr.,  H. Do,  A. D. Dutoi,  R. G. Edgar,  P.-T. Fang,  
 S. Fatehi,  Q. Feng,  L. Fusti-Molnar,  A. Ghysels,  
 A. Golubeva-Zadorozhnaya,  J. Gomes,  A. Gunina,  M. W. D. Hanson-Heine,  
 P. H. P. Harbach,  A. W. Hauser,  E. G. Hohenstein,  Z. C. Holden,  K. Hui,  
 T.-C. Jagau,  H. Ji,  B. Kaduk,  K. Khistyaev,  Jaehoon Kim,  Jihan Kim,  
 R. A. King,  P. Klunzinger,  D. Kosenkov,  T. Kowalczyk,  C. M. Krauter,  
 K. U. Lao,  A. Laurent,  K. V. Lawler,  S. Lehtola,  S. V. Levchenko,  
 C. Y. Lin,  Y.-S. Lin,  F. Liu,  E. Livshits,  R. C. Lochan,  A. Luenser,  
 P. Manohar,  S. F. Manzer,  S.-P. Mao,  N. Mardirossian,  A. V. Marenich,  
 L. A. Martinez-Martinez,  S. A. Maurer,  N. J. Mayhall,  K. Nanda,  
 C. M. Oana,  R. Olivares-Amaya,  D. P. O'Neill,  J. A. Parkhill,  
 T. M. Perrine,  R. Peverati,  P. A. Pieniazek,  F. Plasser,  A. Prociuk,  
 D. R. Rehn,  E. Rosta,  N. J. Russ,  N. Sergueev,  S. M. Sharada,  
 S. Sharma,  D. W. Small,  A. Sodt,  T. Stauch,  T. Stein,  D. Stuck,  
 Y.-C. Su,  A. J. W. Thom,  T. Tsuchimochi,  L. Vogt,  O. Vydrov,  T. Wang,  
 M. A. Watson,  J. Wenzel,  A. White,  C. F. Williams,  V. Vanovschi,  
 S. Yeganeh,  S. R. Yost,  Z.-Q. You,  I. Y. Zhang,  X. Zhang,  Y. Zhao,  
 B. R. Brooks,  G. K. L. Chan,  D. M. Chipman,  C. J. Cramer,  
 W. A. Goddard III,  M. S. Gordon,  W. J. Hehre,  A. Klamt,  
 H. F. Schaefer III,  M. W. Schmidt,  C. D. Sherrill,  D. G. Truhlar,  
 A. Warshel,  X. Xu,  A. Aspuru-Guzik,  R. Baer,  A. T. Bell,  N. A. Besley,  
 J.-D. Chai,  A. Dreuw,  B. D. Dunietz,  T. R. Furlani,  S. R. Gwaltney,  
 C.-P. Hsu,  Y. Jung,  J. Kong,  D. S. Lambrecht,  W. Liang,  C. Ochsenfeld,  
 V. A. Rassolov,  L. V. Slipchenko,  J. E. Subotnik,  T. Van Voorhis,  
 J. M. Herbert,  A. I. Krylov,  P. M. W. Gill,  M. Head-Gordon

 Contributors to earlier versions of Q-Chem not listed above: 
 R. D. Adamson,  J. Baker,  E. F. C. Byrd,  A. K. Chakraborty,  C.-L. Cheng,  
 H. Dachsel,  R. J. Doerksen,  G. Hawkins,  A. Heyden,  S. Hirata,  
 G. Kedziora,  F. J. Keil,  C. Kelley,  P. P. Korambath,  W. Kurlancheek,  
 A. M. Lee,  M. S. Lee,  D. Liotard,  I. Lotan,  P. E. Maslen,  N. Nair,  
 D. Neuhauser,  R. Olson,  B. Peters,  J. Ritchie,  N. E. Schultz,  
 N. Shenvi,  A. C. Simmonett,  K. S. Thanthiriwatte,  Q. Wu,  W. Zhang

 Please cite Q-Chem as follows:
 Y. Shao et al., Mol. Phys. 113, 184-215 (2015)
 DOI: 10.1080/00268976.2014.952696

 Q-Chem 4.3.0 for Intel X86 EM64T Linux

 Parts of Q-Chem use Armadillo 5.200.1 (Boston Tea Smuggler).
 http://arma.sourceforge.net/

 Q-Chem begins on Tue Oct 22 17:22:07 2019  

Host: theochem
0

     Scratch files written to /tmp/qchem215605//

Checking the input file for inconsistencies... 	...done.

--------------------------------------------------------------
User input:
--------------------------------------------------------------
$molecule
read
$end

$rem                                                                    
jobtype freq                                                        
exchange pbe0                                                           
basis cc-pVDZ                                                           
RPA 0                                                                   
MAX_SCF_CYCLES 500                                                      
xc_grid 000075000302                                                    
mem_static 4000                                                         
mem_total 16000                                                         
SYM_IGNORE TRUE                                                         
MOLDEN_FORMAT TRUE
$end                                                                    

--------------------------------------------------------------
 ----------------------------------------------------------------
             Standard Nuclear Orientation (Angstroms)
    I     Atom           X                Y                Z
 ----------------------------------------------------------------
    1      C       1.1278406921     0.6970792226     0.0004923893
    2      N       0.0003656407     1.4093563627     0.0012266221
    3      C      -1.1275640361     0.6975637604     0.0006459994
    4      C      -1.1279018459    -0.6970177831    -0.0004447158
    5      H      -2.0681311713     1.2575930754     0.0011103403
    6      H      -2.0687390968    -1.2565939494    -0.0009902645
    7      N      -0.0003196697    -1.4093566776    -0.0012902426
    8      C       1.1275006932    -0.6976257087    -0.0006374585
    9      H       2.0681566240    -1.2575247135    -0.0011064590
   10      H       2.0687721697     1.2565164113     0.0010237904
 ----------------------------------------------------------------
 Nuclear Repulsion Energy =   208.8347603862 hartrees
 There are       21 alpha and       21 beta electrons
 Requested basis set is cc-pVDZ
 There are 48 shells and 104 basis functions

 Total QAlloc Memory Limit  16000 MB
 Mega-Array Size      3911 MB
 MEM_STATIC part      4000 MB

                       Distance Matrix (Angstroms)
             C (  1)   N (  2)   C (  3)   C (  4)   H (  5)   H (  6)
   N (  2)  1.333619
   C (  3)  2.255405  1.333745
   C (  4)  2.651770  2.389519  1.394582
   H (  5)  3.244752  2.074057  1.094669  2.168995
   H (  6)  3.746327  3.374684  2.168996  1.094669  2.514188
   N (  7)  2.389523  2.818714  2.389518  1.333742  3.374681  2.074053
   C (  8)  1.394705  2.389521  2.651768  2.255403  3.746324  3.244749
   H (  9)  2.169026  3.374614  3.746332  3.244836  4.840940  4.136896
   H ( 10)  1.094679  2.074046  3.244841  3.746335  4.136903  4.840943
             N (  7)   C (  8)   H (  9)
   C (  8)  1.333619
   H (  9)  2.074041  1.094678
   H ( 10)  3.374615  2.169024  2.514042
 
 tim1(1): 
  1.372999999999999E-003
 tim1(2): 
  0.000000000000000E+000
 A cutoff of  1.0D-11 yielded   1157 shell pairs
 There are      5517 function pairs (      6192 Cartesian)
 
 -------------------------------------------------------
 OpenMP Integral Computing Module                       
 Release: version 1.0, May 2013, Q-Chem Inc. Pittsburgh 
 -------------------------------------------------------
 Integral Job Info:
 Integral job number is                      11
 Integral operator is                         1
 short-range coefficients                     0
 long-range coefficients              100000000
 Omega coefficients                           0
 if combine SR and LR in K                    0
 Integral screening is                        0
 Integral computing path is                   2
 max size of driver memory is            800000
 size of driver memory is                593474
 size of scratch memory is              3179904
 max col of scratch BK array               1296
 max len of scratch array in speh3          155
 max len of scratch index in speh4           18
 max int batch size is                      520
 min int batch size is                       52
 fixed nKL is                                52
 max L of basis functions is                  2
 order of int derivative is                   0
 number of shells is                         48
 number of basis is                         110
 number of cartesian basis is               110
 number of contracted shell pairs          1157
 number of primitive shell pairs           6339
 maxK2 (contraction) of shell pair           49
 max number of K2 of shell pair               1
 max number of CS2 of shell pair            154
 max number of PS2 of shell pair           1078
 mem total for path MDJ                   42562
 -------------------------------------------------------
 Smallest overlap matrix eigenvalue = 1.79E-03
 Guess from superposition of atomic densities
 Warning:  Energy on first SCF cycle will be non-variational
 A restricted hybrid HF-DFT SCF calculation will be
 performed using Pulay DIIS extrapolation
 Exchange:     0.2500 Hartree-Fock + 0.7500 PBE
 Correlation:  1.0000 PBE
 Using Euler-Maclaurin-Lebedev (75,302) quadrature formula
 SCF converges when DIIS error is below 1.0E-08
 using 4 threads for integral computing 
 -------------------------------------------------------
 OpenMP BLAS3 based DFT computing Module                
 Release: version 1.0, May 2013, Q-Chem Inc. Pittsburgh 
 -------------------------------------------------------
 ---------------------------------------
  Cycle       Energy         DIIS Error
 ---------------------------------------
    1    -265.4687526104      7.89E-02
    2    -263.9935434795      4.74E-03
    3    -264.0026909151      4.37E-03
    4    -264.0271132250      1.10E-03
    5    -264.0284029550      3.50E-04
    6    -264.0285487051      5.24E-05
    7    -264.0285520683      2.69E-06
    8    -264.0285520792      6.86E-07
    9    -264.0285520793      6.96E-07
   10    -264.0285520802      3.60E-08
[...]
 N          0.072 -0.000 -0.000    0.097  0.000 -0.000    0.000  0.093  0.000
 C          0.012  0.030  0.000   -0.029  0.127  0.000   -0.126 -0.091 -0.000
 C         -0.012  0.030  0.000   -0.029 -0.127 -0.000    0.126 -0.091 -0.000
 H         -0.260 -0.423 -0.000   -0.334 -0.341 -0.000    0.184  0.434  0.000
 H          0.260 -0.423 -0.000   -0.334  0.341  0.000   -0.184  0.434  0.000
 N         -0.072  0.000  0.000    0.097 -0.000 -0.000   -0.000  0.093  0.000
 C         -0.012 -0.030 -0.000   -0.029  0.127  0.000   -0.125 -0.091 -0.000
 H          0.260  0.423  0.000   -0.334 -0.342 -0.000    0.184  0.433  0.000
 H         -0.260  0.423  0.000   -0.334  0.342  0.000   -0.183  0.433  0.000
 TransDip  -0.000  0.000  0.000   -0.194  0.000  0.000    0.000  0.031  0.000

 Mode:                19                     20                     21
 Frequency:      1623.83                1661.40                3179.14
 Force Cnst:     14.8734                 9.3333                 6.4623
 Red. Mass:       9.5737                 5.7390                 1.0852
 IR Active:          YES                    YES                    YES
 IR Intens:        0.000                  0.000                  0.098
 Raman Active:       YES                    YES                    YES
               X      Y      Z        X      Y      Z        X      Y      Z
 C          0.281 -0.154 -0.000    0.090 -0.295 -0.000   -0.041 -0.025 -0.000
 N         -0.396  0.001  0.000   -0.000  0.143  0.000   -0.000  0.000  0.000
 C          0.280  0.153  0.000   -0.090 -0.296 -0.000   -0.030  0.019  0.000
 C         -0.280  0.153  0.000   -0.090  0.296  0.000    0.030  0.019  0.000
 H          0.025 -0.261 -0.000    0.283  0.254  0.000    0.364 -0.219 -0.000
 H         -0.025 -0.261 -0.000    0.283 -0.254 -0.000   -0.364 -0.219 -0.000
 N          0.396  0.000 -0.000   -0.000 -0.143 -0.000    0.000  0.000 -0.000
 C         -0.281 -0.154 -0.000    0.090  0.295  0.000    0.041 -0.025 -0.000
 H         -0.024  0.264  0.000   -0.282 -0.254 -0.000   -0.482  0.290  0.000
 H          0.024  0.264  0.000   -0.282  0.254  0.000    0.482  0.290  0.000
 TransDip  -0.000 -0.000  0.000    0.000  0.000  0.000   -0.000 -0.010 -0.000

 Mode:                22                     23                     24
 Frequency:      3179.52                3195.90                3201.78
 Force Cnst:      6.4921                 6.5939                 6.6522
 Red. Mass:       1.0900                 1.0957                 1.1014
 IR Active:          YES                    YES                    YES
 IR Intens:        4.963                 57.919                  0.005
 Raman Active:       YES                    YES                    YES
               X      Y      Z        X      Y      Z        X      Y      Z
 C         -0.032 -0.018 -0.000   -0.037 -0.027 -0.000    0.037  0.026  0.000
 N          0.000  0.000 -0.000    0.001  0.000 -0.000    0.000 -0.000 -0.000
 C          0.042 -0.024 -0.000   -0.036  0.026  0.000   -0.038  0.027  0.000
 C         -0.042 -0.024 -0.000   -0.036 -0.026 -0.000   -0.038 -0.027 -0.000
 H         -0.482  0.289  0.000    0.420 -0.259 -0.000    0.428 -0.264 -0.000
 H          0.483  0.289  0.000    0.420  0.258  0.000    0.428  0.264  0.000
 N         -0.000  0.000 -0.000    0.001 -0.000 -0.000    0.000  0.000  0.000
 C          0.032 -0.018 -0.000   -0.037  0.027  0.000    0.037 -0.026 -0.000
 H         -0.364  0.218  0.000    0.428 -0.264 -0.000   -0.420  0.259  0.000
 H          0.364  0.218  0.000    0.428  0.263  0.000   -0.419 -0.259 -0.000
 TransDip  -0.000 -0.071 -0.000   -0.244  0.000  0.000   -0.002 -0.000  0.000

 STANDARD THERMODYNAMIC QUANTITIES AT   298.15 K  AND     1.00 ATM

   This Molecule has  0 Imaginary Frequencies
   Zero point vibrational energy:       48.475 kcal/mol

   Atom    1 Element C  Has Mass   12.00000
   Atom    2 Element N  Has Mass   14.00307
   Atom    3 Element C  Has Mass   12.00000
   Atom    4 Element C  Has Mass   12.00000
   Atom    5 Element H  Has Mass    1.00783
   Atom    6 Element H  Has Mass    1.00783
   Atom    7 Element N  Has Mass   14.00307
   Atom    8 Element C  Has Mass   12.00000
   Atom    9 Element H  Has Mass    1.00783
   Atom   10 Element H  Has Mass    1.00783
   Molecular Mass:    80.037460 amu
   Principal axes and moments of inertia in amu*Bohr^2:
                             1           2           3
    Eigenvalues --      279.57899   304.75069   584.32968
          X               0.00025     1.00000     0.00007
          Y               1.00000    -0.00025    -0.00086
          Z               0.00086    -0.00007     1.00000
   Rotational Symmetry Number is   1
   The Molecule is an Asymmetric Top
   Translational Enthalpy:        0.889 kcal/mol
   Rotational Enthalpy:           0.889 kcal/mol
   Vibrational Enthalpy:         49.318 kcal/mol
   gas constant (RT):             0.592 kcal/mol
   Translational Entropy:        39.054  cal/mol.K
   Rotational Entropy:           25.413  cal/mol.K
   Vibrational Entropy:           3.878  cal/mol.K

   Total Enthalpy:               51.688 kcal/mol
   Total Entropy:                68.344  cal/mol.K
Archival summary:
1\1\theochem\FREQ\ProcedureUnspecified\BasisUnspecified\244\ehrmaier\TueOct2217:32:532019TueOct2217:32:532019\0\\#,FREQ,ProcedureUnspecified,BasisUnspecified,\\0,1\N\C,1,1.33362\H,2,1.09468,1,116.983\C,1,1.33374,2,115.463,3,-179.988,0\H,4,1.09467,1,116.975,2,-179.998,0\C,4,1.39458,1,122.268,2,-0.0182966,0\H,6,1.09467,4,120.756,1,-179.987,0\N,6,1.33374,4,122.268,1,0.0158676,0\C,8,1.33362,6,115.463,4,-0.00956813,0\H,9,1.09468,8,116.984,6,179.995,0\\\@

 Total job time:  645.97s(wall), 669.89s(cpu) 
 Tue Oct 22 17:32:53 2019

======= MOLDEN-FORMATTED INPUT FILE FOLLOWS =======
[Molden Format]
[Atoms] (Angs)
  C      1    6      1.12784069      0.69707922      0.00049239
  N      2    7      0.00036564      1.40935636      0.00122662
  C      3    6     -1.12756404      0.69756376      0.00064600
  C      4    6     -1.12790185     -0.69701778     -0.00044472
  H      5    1     -2.06813117      1.25759308      0.00111034
  H      6    1     -2.06873910     -1.25659395     -0.00099026
  N      7    7     -0.00031967     -1.40935668     -0.00129024
  C      8    6      1.12750069     -0.69762571     -0.00063746
  H      9    1      2.06815662     -1.25752471     -0.00110646
  H     10    1      2.06877217      1.25651641      0.00102379
[FREQ]
    348.38262202
    428.57300547
    603.23831078
    718.60159610
    782.90211634
    805.24020441
    947.86258601
    992.95034185
   1006.51101692
   1035.81537377
   1061.53512018
   1099.43699027
   1174.27485111
   1252.88718981
   1284.14114105
   1357.14665500
   1445.76997819
   1521.84890105
   1623.82905509
   1661.40052396
   3179.13630461
   3179.52343857
   3195.89535028
   3201.78081473
[FR-COORD]
  C      2.13131002      1.31728882      0.00093048
  N      0.00069096      2.66329754      0.00231798
  C     -2.13078722      1.31820446      0.00122076
  C     -2.13142558     -1.31717271     -0.00084039
  H     -3.90820150      2.37650649      0.00209824
  H     -3.90935032     -2.37461841     -0.00187133
  N     -0.00060409     -2.66329813     -0.00243821
  C      2.13066752     -1.31832153     -0.00120462
  H      3.90824960     -2.37637730     -0.00209090
  H      3.90941282      2.37447189      0.00193468
[FR-NORM-COORD]
vibration 1
     0.00001280     -0.00013423      0.16766236
    -0.00000127     -0.00000170     -0.00000226
    -0.00000783      0.00013032     -0.16767918
     0.00001471     -0.00013303      0.16768144
    -0.00001148      0.00037948     -0.47101752
     0.00001901     -0.00042720      0.47102681
    -0.00001074      0.00000559     -0.00000253
    -0.00000660      0.00013807     -0.16766049
    -0.00000796      0.00039422     -0.47106996
     0.00001141     -0.00041401      0.47107806
vibration 2
    -0.00001846      0.00019302     -0.20748528
     0.00003238     -0.00035535      0.40633599
    -0.00002010      0.00018069     -0.20743184
    -0.00004715      0.00019715     -0.20742553
    -0.00000131      0.00033616     -0.35284831
    -0.00002669      0.00030384     -0.35283419
     0.00003816     -0.00037961      0.40633686
     0.00000497      0.00017972     -0.20749222
     0.00001595      0.00032220     -0.35259446
    -0.00000677      0.00031249     -0.35257249
vibration 3
     0.23270160     -0.03497759     -0.00005248
    -0.00012598     -0.44360061     -0.00038741
    -0.23270920     -0.03482395     -0.00001931
    -0.23268626      0.03494274      0.00005012
    -0.03419636      0.30832824      0.00027182
    -0.03433614     -0.30830945     -0.00025021
     0.00009258      0.44360086      0.00038467
     0.23272455      0.03485857      0.00003317
     0.03424370     -0.30833759     -0.00030648
     0.03438744      0.30831822      0.00018606
vibration 4
    -0.24091184     -0.25574045     -0.00018015
    -0.14048010      0.00000741     -0.00000331
    -0.24077894      0.25588832      0.00023601
     0.24090855      0.25577223      0.00017473
    -0.30393346      0.15593943      0.00022672
     0.30400979      0.15580204      0.00017851
     0.14047966     -0.00006892      0.00000404
     0.24078287     -0.25585772     -0.00024500
     0.30392990     -0.15588681     -0.00017083
    -0.30400784     -0.15574280     -0.00007314
vibration 5
    -0.00003331      0.00014606     -0.19103815
     0.00000761     -0.00018642      0.21792483
    -0.00001035      0.00015946     -0.19102632
     0.00004782     -0.00014969      0.19102189
    -0.00002612      0.00034347     -0.43560443
     0.00004730     -0.00038278      0.43563893
    -0.00001322      0.00020727     -0.21792298
     0.00000227     -0.00017419      0.19103575
     0.00000250     -0.00038785      0.43562183
    -0.00002227      0.00035593     -0.43560085
vibration 6
     0.00001669      0.00005399     -0.05163078
     0.00000222     -0.00002759      0.01693431
    -0.00001189      0.00004971     -0.05164156
     0.00000502      0.00004839     -0.05164789
     0.00000510     -0.00038212      0.49724113
     0.00001512     -0.00048592      0.49724103
    -0.00000190     -0.00002797      0.01693784
    -0.00001120      0.00005830     -0.05163092
    -0.00001905     -0.00042066      0.49711508
     0.00001070     -0.00044440      0.49713070
vibration 7
    -0.00000034      0.00005668     -0.07612698
    -0.00001125      0.00000217     -0.00001753
     0.00000404     -0.00006157      0.07612578
     0.00000366     -0.00007088      0.07613454
    -0.00001602      0.00038547     -0.49406817
    -0.00001011      0.00048839     -0.49411152
    -0.00000543      0.00000929     -0.00001959
     0.00001474      0.00006434     -0.07611716
     0.00000387     -0.00043904      0.49422724
    -0.00000907     -0.00045804      0.49427557
vibration 8
    -0.00001713      0.00006318     -0.08709906
    -0.00000217      0.00000751      0.01070474
     0.00001094      0.00005875     -0.08721304
    -0.00000662     -0.00008226      0.08720539
     0.00001025     -0.00042773      0.49258508
    -0.00001528      0.00047506     -0.49253398
     0.00000452      0.00003374     -0.01070506
     0.00000995     -0.00008689      0.08710711
     0.00002051      0.00041913     -0.49203957
    -0.00001407     -0.00047747      0.49198828
vibration 9
    -0.00002739     -0.00012585      0.11486888
    -0.00000686      0.00005354     -0.00000774
     0.00003088      0.00006288     -0.11477157
    -0.00002135     -0.00012448      0.11477051
     0.00002078     -0.00045913      0.48633130
    -0.00002269      0.00043865     -0.48632006
    -0.00000539      0.00005620      0.00000827
     0.00003310      0.00006762     -0.11487083
     0.00000724     -0.00048769      0.48695776
    -0.00001663      0.00041009     -0.48694044
vibration 10
    -0.15179685     -0.16064316     -0.00019129
     0.00013198      0.33036225      0.00028106
     0.15164083     -0.16070172     -0.00006585
    -0.15172756     -0.16062883     -0.00025529
     0.02673638     -0.38195386     -0.00061405
    -0.02692329     -0.38195338      0.00025972
     0.00003189      0.33035519      0.00031394
     0.15172357     -0.16072506     -0.00010700
     0.02688562     -0.38192279     -0.00044993
    -0.02707041     -0.38189504     -0.00008735
vibration 11
    -0.20671039     -0.14427752     -0.00010033
    -0.00021189     -0.20721986     -0.00018134
     0.20679587     -0.14366279     -0.00012083
     0.20685661      0.14355850      0.00007244
     0.07897005     -0.39791398     -0.00033822
     0.07915337      0.39787088      0.00035890
    -0.00010902      0.20722754      0.00020684
    -0.20663547      0.14437377      0.00011411
    -0.07855813      0.39921170      0.00036716
    -0.07875741     -0.39917941     -0.00033012
vibration 12
     0.05418580      0.09448906      0.00007031
    -0.07053728     -0.00011940      0.00000603
     0.05442926     -0.09455205     -0.00007761
     0.05446305      0.09452623      0.00005587
    -0.15660409     -0.45949379     -0.00036506
    -0.15641001      0.45959512      0.00045346
    -0.07053755      0.00014833      0.00000793
     0.05415140     -0.09451418     -0.00007325
    -0.15677609     -0.45933260     -0.00040572
    -0.15657872      0.45943590      0.00041725
vibration 13
     0.12378040      0.00229499      0.00000050
     0.00007324      0.04580932      0.00004056
    -0.12385276      0.00231896      0.00000264
     0.12385769      0.00226760     -0.00000063
    -0.33793739     -0.34570500     -0.00026162
     0.33774080     -0.34580217     -0.00042125
    -0.00005720      0.04580943      0.00005132
    -0.12377278      0.00235161      0.00000300
    -0.33778345     -0.34563414     -0.00031048
     0.33760786     -0.34577215     -0.00034886
vibration 14
     0.06126683     -0.02707581     -0.00002289
     0.00037132      0.02216707      0.00002113
    -0.06167260     -0.02752367     -0.00002170
    -0.06166196      0.02755281      0.00002400
    -0.29211164     -0.40026364     -0.00031414
    -0.29193091      0.40041925      0.00040753
     0.00036044     -0.02216823     -0.00002594
     0.06128384      0.02704615      0.00002086
     0.29170660      0.39977976      0.00034744
     0.29150215     -0.39991315     -0.00037729
vibration 15
    -0.24601042      0.28573052      0.00025198
     0.43353270     -0.00062355     -0.00004091
    -0.24453285     -0.28577215     -0.00020203
    -0.24438535      0.28589352      0.00028600
    -0.08876909     -0.07370215     -0.00007985
    -0.08870638      0.07372164      0.00003640
     0.43352127      0.00040769     -0.00004509
    -0.24615084     -0.28560772     -0.00025175
    -0.09407565     -0.07917903      0.00009388
    -0.09405007      0.07925170      0.00014197
vibration 16
     0.01170663     -0.02975882     -0.00002609
     0.07197855     -0.00002511     -0.00000144
     0.01171994      0.02974201      0.00002445
    -0.01170471      0.02974520      0.00002701
    -0.26029182     -0.42252656     -0.00033693
     0.26008332     -0.42264539     -0.00041614
    -0.07198016      0.00000926      0.00000223
    -0.01171951     -0.02974764     -0.00002672
     0.26034930      0.42274596      0.00036899
    -0.26014647      0.42287547      0.00038918
vibration 17
    -0.02859856     -0.12725427     -0.00010454
     0.09712588      0.00004406     -0.00000289
    -0.02859750      0.12709324      0.00010093
    -0.02865090     -0.12708731     -0.00010118
    -0.33415280     -0.34103153     -0.00027473
    -0.33401417      0.34124008      0.00034911
     0.09712651     -0.00008477     -0.00000392
    -0.02854255      0.12726254      0.00010591
    -0.33448745     -0.34161994     -0.00030899
    -0.33433271      0.34180810      0.00031600
vibration 18
     0.12508801     -0.09060554     -0.00008556
     0.00034701      0.09306205      0.00008272
    -0.12563546     -0.09082238     -0.00007189
     0.12559442     -0.09086847     -0.00009454
     0.18384418      0.43383754      0.00034234
    -0.18360480      0.43389929      0.00040248
    -0.00031092      0.09306130      0.00009234
    -0.12512877     -0.09055348     -0.00007841
     0.18372478      0.43325570      0.00037519
    -0.18349168      0.43332804      0.00038164
vibration 19
     0.28107752     -0.15365196     -0.00015518
    -0.39580397      0.00052427      0.00002794
     0.28010162      0.15280995      0.00012712
    -0.28003187      0.15293902      0.00017253
     0.02488590     -0.26113194     -0.00022200
    -0.02502874     -0.26110617     -0.00016995
     0.39581102      0.00033353     -0.00003276
    -0.28115488     -0.15352593     -0.00014167
    -0.02413982      0.26367260      0.00023498
     0.02427533      0.26366096      0.00019058
vibration 20
     0.09006941     -0.29549056     -0.00025401
    -0.00015607      0.14311169      0.00012974
    -0.09004447     -0.29572934     -0.00023453
    -0.08990908      0.29577672      0.00026108
     0.28268864      0.25412176      0.00020973
     0.28256445     -0.25426217     -0.00026804
    -0.00021831     -0.14311447     -0.00014410
     0.09021241      0.29544767      0.00025022
    -0.28204665     -0.25394741     -0.00024630
    -0.28191339      0.25407311      0.00023306
vibration 21
    -0.04056605     -0.02476415     -0.00002285
    -0.00045890      0.00001771      0.00000031
    -0.03015079      0.01879497      0.00001574
     0.03017541      0.01879116      0.00001761
     0.36355983     -0.21888901     -0.00018409
    -0.36383607     -0.21881949     -0.00020637
     0.00045910      0.00001718     -0.00000033
     0.04052506     -0.02476355     -0.00002097
    -0.48182106      0.28972160      0.00024645
     0.48228948      0.28968762      0.00026904
vibration 22
    -0.03216548     -0.01831315     -0.00001693
     0.00006654      0.00013068     -0.00000009
     0.04205180     -0.02443258     -0.00002057
    -0.04209329     -0.02443406     -0.00002271
    -0.48225001      0.28931183      0.00024338
     0.48273774      0.28929363      0.00027348
    -0.00006574      0.00013072     -0.00000009
     0.03212886     -0.01830863     -0.00001554
    -0.36354114      0.21781582      0.00018531
     0.36397251      0.21783778      0.00020218
vibration 23
    -0.03650653     -0.02652491     -0.00002394
     0.00090164      0.00000378     -0.00000004
    -0.03579708      0.02606399      0.00002146
    -0.03578191     -0.02603083     -0.00002361
     0.42022820     -0.25854393     -0.00021655
     0.42003738      0.25815262      0.00024334
     0.00090155     -0.00000435     -0.00000002
    -0.03652690      0.02656211      0.00002226
     0.42840045     -0.26352127     -0.00022391
     0.42814669      0.26308272      0.00024353
vibration 24
     0.03742139      0.02618910      0.00002301
     0.00000785     -0.00048859     -0.00000026
    -0.03812151      0.02673579      0.00002213
    -0.03811496     -0.02670538     -0.00002363
     0.42772070     -0.26425674     -0.00022075
     0.42761458      0.26391021      0.00024929
     0.00000841      0.00048859      0.00000023
     0.03743152     -0.02622144     -0.00002218
    -0.41961727      0.25919918      0.00022002
    -0.41947028     -0.25882964     -0.00024034
[INT]
    0.000000
   19.504890
    0.000001
    0.000000
    0.000000
   25.610046
    0.000000
    0.000000
    0.000004
   37.147701
    0.000035
    7.481786
    7.989361
    0.000008
    2.824321
    0.000001
   36.534288
    0.953760
    0.000000
    0.000029
    0.098293
    4.962873
   57.919288
    0.005138

======= END OF MOLDEN-FORMATTED INPUT FILE =======


        *************************************************************
        *                                                           *
        *  Thank you very much for using Q-Chem.  Have a nice day.  *
        *                                                           *
        *************************************************************


