                  Welcome to Q-Chem
     A Quantum Leap Into The Future Of Chemistry


 Q-Chem 4.3, Q-Chem, Inc., Pleasanton, CA (2015)

 Y. Shao,  Z. Gan,  E. Epifanovsky,  A. T. B. Gilbert,  M. Wormit,  
 J. Kussmann,  A. W. Lange,  A. Behn,  J. Deng,  X. Feng,  D. Ghosh,  
 M. Goldey,  P. R. Horn,  L. D. Jacobson,  I. Kaliman,  R. Z. Khaliullin,  
 T. Kus,  A. Landau,  J. Liu,  E. I. Proynov,  Y. M. Rhee,  R. M. Richard,  
 M. A. Rohrdanz,  R. P. Steele,  E. J. Sundstrom,  H. L. Woodcock III,  
 P. M. Zimmerman,  D. Zuev,  B. Albrecht,  E. Alguire,  B. Austin,  
 S. A. Baeppler,  G. J. O. Beran,  Y. A. Bernard,  E. Berquist,  
 K. Brandhorst,  K. B. Bravaya,  S. T. Brown,  D. Casanova,  C.-M. Chang,  
 Y. Chen,  S. H. Chien,  K. D. Closser,  D. L. Crittenden,  M. Diedenhofen,  
 R. A. DiStasio Jr.,  H. Do,  A. D. Dutoi,  R. G. Edgar,  P.-T. Fang,  
 S. Fatehi,  Q. Feng,  L. Fusti-Molnar,  A. Ghysels,  
 A. Golubeva-Zadorozhnaya,  J. Gomes,  A. Gunina,  M. W. D. Hanson-Heine,  
 P. H. P. Harbach,  A. W. Hauser,  E. G. Hohenstein,  Z. C. Holden,  K. Hui,  
 T.-C. Jagau,  H. Ji,  B. Kaduk,  K. Khistyaev,  Jaehoon Kim,  Jihan Kim,  
 R. A. King,  P. Klunzinger,  D. Kosenkov,  T. Kowalczyk,  C. M. Krauter,  
 K. U. Lao,  A. Laurent,  K. V. Lawler,  S. Lehtola,  S. V. Levchenko,  
 C. Y. Lin,  Y.-S. Lin,  F. Liu,  E. Livshits,  R. C. Lochan,  A. Luenser,  
 P. Manohar,  S. F. Manzer,  S.-P. Mao,  N. Mardirossian,  A. V. Marenich,  
 L. A. Martinez-Martinez,  S. A. Maurer,  N. J. Mayhall,  K. Nanda,  
 C. M. Oana,  R. Olivares-Amaya,  D. P. O'Neill,  J. A. Parkhill,  
 T. M. Perrine,  R. Peverati,  P. A. Pieniazek,  F. Plasser,  A. Prociuk,  
 D. R. Rehn,  E. Rosta,  N. J. Russ,  N. Sergueev,  S. M. Sharada,  
 S. Sharma,  D. W. Small,  A. Sodt,  T. Stauch,  T. Stein,  D. Stuck,  
 Y.-C. Su,  A. J. W. Thom,  T. Tsuchimochi,  L. Vogt,  O. Vydrov,  T. Wang,  
 M. A. Watson,  J. Wenzel,  A. White,  C. F. Williams,  V. Vanovschi,  
 S. Yeganeh,  S. R. Yost,  Z.-Q. You,  I. Y. Zhang,  X. Zhang,  Y. Zhao,  
 B. R. Brooks,  G. K. L. Chan,  D. M. Chipman,  C. J. Cramer,  
 W. A. Goddard III,  M. S. Gordon,  W. J. Hehre,  A. Klamt,  
 H. F. Schaefer III,  M. W. Schmidt,  C. D. Sherrill,  D. G. Truhlar,  
 A. Warshel,  X. Xu,  A. Aspuru-Guzik,  R. Baer,  A. T. Bell,  N. A. Besley,  
 J.-D. Chai,  A. Dreuw,  B. D. Dunietz,  T. R. Furlani,  S. R. Gwaltney,  
 C.-P. Hsu,  Y. Jung,  J. Kong,  D. S. Lambrecht,  W. Liang,  C. Ochsenfeld,  
 V. A. Rassolov,  L. V. Slipchenko,  J. E. Subotnik,  T. Van Voorhis,  
 J. M. Herbert,  A. I. Krylov,  P. M. W. Gill,  M. Head-Gordon

 Contributors to earlier versions of Q-Chem not listed above: 
 R. D. Adamson,  J. Baker,  E. F. C. Byrd,  A. K. Chakraborty,  C.-L. Cheng,  
 H. Dachsel,  R. J. Doerksen,  G. Hawkins,  A. Heyden,  S. Hirata,  
 G. Kedziora,  F. J. Keil,  C. Kelley,  P. P. Korambath,  W. Kurlancheek,  
 A. M. Lee,  M. S. Lee,  D. Liotard,  I. Lotan,  P. E. Maslen,  N. Nair,  
 D. Neuhauser,  R. Olson,  B. Peters,  J. Ritchie,  N. E. Schultz,  
 N. Shenvi,  A. C. Simmonett,  K. S. Thanthiriwatte,  Q. Wu,  W. Zhang

 Please cite Q-Chem as follows:
 Y. Shao et al., Mol. Phys. 113, 184-215 (2015)
 DOI: 10.1080/00268976.2014.952696

 Q-Chem 4.3.0 for Intel X86 EM64T Linux

 Parts of Q-Chem use Armadillo 5.200.1 (Boston Tea Smuggler).
 http://arma.sourceforge.net/

 Q-Chem begins on Wed Oct 16 16:43:42 2019  

Host: theochem
0

     Scratch files written to /tmp/qchem310620//

Checking the input file for inconsistencies... 	...done.

--------------------------------------------------------------
User input:
--------------------------------------------------------------
$molecule                                                               
0 1                                                                     
c      2.14229      1.37344      0.00001                                
n     -0.00018      2.74722     -0.00000                                
c     -2.14248      1.37316     -0.00000                                
c     -2.14231     -1.37343      0.00000                                
h     -3.99562      2.24151     -0.00000                                
h     -3.99533     -2.24207      0.00002                                
n      0.00019     -2.74722     -0.00000                                
c      2.14249     -1.37316     -0.00000                                
h      3.99561     -2.24152     -0.00000                                
h      3.99532      2.24206      0.00000                                
$end                                                                    


$rem                                                                    
jobtype opt                                                        
exchange pbe0                                                           
basis sto-3g                                                            
RPA 0                                                                   
MAX_SCF_CYCLES 500                                                      
xc_grid 000075000302                                                    
mem_static 4000                                                         
mem_total 16000                                                         
SYM_IGNORE TRUE                                                         
MOLDEN_FORMAT TRUE
$end                                                                    

--------------------------------------------------------------
 ----------------------------------------------------------------
             Standard Nuclear Orientation (Angstroms)
    I     Atom           X                Y                Z
 ----------------------------------------------------------------
    1      C       2.1422900000     1.3734400000     0.0000100000
    2      N      -0.0001800000     2.7472200000     0.0000000000
    3      C      -2.1424800000     1.3731600000     0.0000000000
    4      C      -2.1423100000    -1.3734300000     0.0000000000
    5      H      -3.9956200000     2.2415100000     0.0000000000
    6      H      -3.9953300000    -2.2420700000     0.0000200000
    7      N       0.0001900000    -2.7472200000     0.0000000000
    8      C       2.1424900000    -1.3731600000     0.0000000000
    9      H       3.9956100000    -2.2415200000     0.0000000000
   10      H       3.9953200000     2.2420600000     0.0000000000
 ----------------------------------------------------------------
 Nuclear Repulsion Energy =   108.6877807706 hartrees
 There are       21 alpha and       21 beta electrons
 Requested basis set is STO-3G
 There are 16 shells and 34 basis functions

 Total QAlloc Memory Limit  16000 MB
 Mega-Array Size      3911 MB
 MEM_STATIC part      4000 MB
 tim1(1): 
  1.919999999999977E-004
 tim1(2): 
  0.000000000000000E+000
 A cutoff of  1.0D-11 yielded    109 shell pairs
 There are       598 function pairs
 
 -------------------------------------------------------
 OpenMP Integral Computing Module                       
 Release: version 1.0, May 2013, Q-Chem Inc. Pittsburgh 
 -------------------------------------------------------
 Integral Job Info:
 Integral job number is                      11
 Integral operator is                         1
 short-range coefficients                     0
 long-range coefficients              100000000
 Omega coefficients                           0
 if combine SR and LR in K                    0
 Integral screening is                        0
 Integral computing path is                   2
 max size of driver memory is            800000
 size of driver memory is                 45569
 size of scratch memory is               945100
 max col of scratch BK array                289
 max len of scratch array in speh3           22
 max len of scratch index in speh4            8
 max int batch size is                      520
 min int batch size is                       52
 fixed nKL is                                52
 max L of basis functions is                  1
 order of int derivative is                   0
 number of shells is                         16
 number of basis is                          34
 number of cartesian basis is                34
 number of contracted shell pairs           109
 number of primitive shell pairs            591
 maxK2 (contraction) of shell pair            9
 max number of K2 of shell pair               1
 max number of CS2 of shell pair             20
 max number of PS2 of shell pair            120
 mem total for path MDJ                    9426
 -------------------------------------------------------
 Smallest overlap matrix eigenvalue = 7.01E-01

 Scale SEOQF with 1.000000e-01/1.000000e-01/1.000000e+00

 Standard Electronic Orientation quadrupole field applied
 Nucleus-field energy     =     0.0000000184 hartrees
 Guess from superposition of atomic densities
 Warning:  Energy on first SCF cycle will be non-variational
 A restricted hybrid HF-DFT SCF calculation will be
 performed using Pulay DIIS extrapolation
 Exchange:     0.2500 Hartree-Fock + 0.7500 PBE
 Correlation:  1.0000 PBE
 Using Euler-Maclaurin-Lebedev (75,302) quadrature formula
 SCF converges when DIIS error is below 1.0E-08
 using 4 threads for integral computing 
 -------------------------------------------------------
 OpenMP BLAS3 based DFT computing Module                
 Release: version 1.0, May 2013, Q-Chem Inc. Pittsburgh 
 -------------------------------------------------------
 ---------------------------------------
  Cycle       Energy         DIIS Error
 ---------------------------------------
    1    -257.3736466563      1.28E-02
    2    -256.4847960250      7.65E-02
    3    -256.8301630728      7.25E-02
    4    -256.5815452742      7.61E-02
    5    -256.4395054057      7.68E-02
    6    -256.4371865840      7.69E-02
    7    -256.4374344282      7.69E-02
    8    -236.8557082195      9.63E-02
    9    -251.6481336738      6.48E-02
   10    -252.7240947882      7.10E-02
   11    -253.6778628890      9.05E-02
   12    -253.3338024462      8.62E-02
   13    -253.5053542249      8.76E-02
   14    -253.0928735716      8.33E-02
   15    -253.3447860788      7.60E-02
   16    -252.8108212361      7.68E-02
   17    -253.1409437910      7.88E-02
   18    -253.1235754449      7.88E-02
   19    -253.3158356645      7.93E-02
   20    -253.6049552489      8.49E-02
   21    -253.6855023275      9.02E-02
   22    -253.9904726470      8.89E-02
   23    -257.2572499011      6.47E-02
   24    -237.0657762172      1.07E-01
   25    -251.9924751914      1.10E-01
   26    -255.0961649623      9.25E-02
   27    -256.5213595602      7.45E-02
   28    -255.8959438216      6.87E-02
   29    -255.5616198300      6.05E-02
   30    -252.9789486414      7.09E-02
   31    -252.8883976218      7.31E-02
   32    -252.8156000074      7.04E-02
   33    -252.6995145579      6.86E-02
   34    -252.7756072090      6.85E-02
   35    -255.8121591362      6.36E-02
   36    -255.9454315830      5.42E-02
   37    -257.5077169500      6.14E-02
   38    -254.2897288496      9.52E-02
   39    -254.8724904627      7.50E-02
   40    -238.8383983361      1.10E-01
   41    -247.2355385510      1.26E-01
   42    -250.3724251872      1.25E-01
   43    -255.2750721126      8.51E-02
   44    -257.0527357236      7.43E-02
   45    -252.2082375513      7.79E-02
   46    -252.4414417247      1.03E-01
   47    -255.6114267691      7.07E-02
   48    -256.8617750188      6.96E-02
   49    -256.4380665678      5.79E-02
   50    -256.2940508695      6.61E-02
   51    -257.2739317157      6.20E-02
   52    -256.7406280423      6.38E-02
   53    -255.9946058483      6.09E-02
   54    -257.4715155078      6.09E-02
   55    -255.4865385613      7.08E-02
   56    -258.3674124680      2.53E-02
   57    -255.7484403766      7.77E-02
   58    -256.2403268853      8.70E-02
   59    -257.1635686579      8.08E-02
   60    -255.5453644317      7.93E-02
   61    -257.6055311915      6.27E-02
   62    -258.2914273820      3.00E-02
   63    -257.9323830270      4.88E-02
   64    -258.0493259563      4.40E-02
   65    -258.0842759908      4.34E-02
   66    -258.1854462938      4.03E-02
   67    -258.3449613823      2.95E-02
   68    -258.3511047357      2.82E-02
   69    -258.2816008777      3.44E-02
   70    -258.2754395825      3.47E-02
   71    -258.3556736299      2.85E-02
   72    -258.4467806639      1.83E-02
   73    -258.4821415798      1.30E-02
   74    -258.5190442633      6.61E-03
   75    -258.5290530701      1.72E-03
   76    -258.5299266023      9.52E-04
   77    -258.5301787107      4.08E-04
   78    -258.5302246124      8.50E-05
   79    -258.5302283116      2.55E-05
   80    -258.5302297918      5.55E-05
   81    -258.5302311086      7.41E-06
   82    -258.5302311293      5.77E-06
   83    -258.5302311472      2.27E-06
   84    -258.5302311589      1.07E-06
   85    -258.5302311733      1.02E-06
   86    -258.5302311804      1.04E-06
   87    -258.5302311840      7.84E-07
   88    -258.5302311846      2.03E-07
   89    -258.5302311847      6.75E-08
   90    -258.5302311847      5.34E-08
   91    -258.5302311847      8.32E-08
   92    -258.5302311847      3.29E-08
   93    -258.5302311848      3.18E-08
   94    -258.5302311848      1.81E-08
   95    -258.5302311848      1.46E-08
   96    -258.5302311848      1.04E-08
   97    -258.5302311848      7.16E-09 Convergence criterion met
 ---------------------------------------
 SCF time:  CPU 53.19 s  wall 13.33 s
 SCF   energy in the final basis set = -258.5302311848
 Total energy in the final basis set = -258.5302311848
 
 --------------------------------------------------------------
 
                    Orbital Energies (a.u.)
 --------------------------------------------------------------
 
 Alpha MOs
 -- Occupied --
-14.126 -14.126 -10.053 -10.053 -10.052 -10.052  -0.629  -0.628
 -0.513  -0.506  -0.484  -0.476  -0.192  -0.191  -0.182  -0.176
 -0.168  -0.130  -0.118  -0.116  -0.112
 -- Virtual --
 -0.048  -0.039  -0.031  -0.023  -0.019  -0.017  -0.006   0.013
  0.037   0.043   0.044   0.053   0.056
 --------------------------------------------------------------
 
          Ground-State Mulliken Net Atomic Charges

     Atom                 Charge (a.u.)
  ----------------------------------------
      1 C                     0.107731
      2 N                    -0.077982
      3 C                     0.107730
      4 C                     0.107733
      5 H                    -0.068739
      6 H                    -0.068741
      7 N                    -0.077981
      8 C                     0.107730
      9 H                    -0.068740
     10 H                    -0.068742
  ----------------------------------------
  Sum of atomic charges =    -0.000000

 -----------------------------------------------------------------
                    Cartesian Multipole Moments
 -----------------------------------------------------------------
    Charge (ESU x 10^10)
                -0.0000
    Dipole Moment (Debye)
         X      -0.0000      Y      -0.0000      Z       0.0000
       Tot       0.0000
    Quadrupole Moments (Debye-Ang)
        XX     -36.2243     XY      -0.0001     YY     -38.2296
        XZ       0.0000     YZ      -0.0000     ZZ     -30.8362
    Octopole Moments (Debye-Ang^2)
       XXX      -0.0004    XXY      -0.0002    XYY       0.0002
       YYY      -0.0003    XXZ      -0.0001    XYZ      -0.0000
       YYZ      -0.0001    XZZ      -0.0000    YZZ      -0.0000
       ZZZ      -0.0002
    Hexadecapole Moments (Debye-Ang^3)
      XXXX   -1032.6612   XXXY      -0.0093   XXYY    -312.7104
      XYYY      -0.0112   YYYY    -780.9390   XXXZ       0.0002
      XXYZ       0.0002   XYYZ       0.0001   YYYZ      -0.0006
      XXZZ    -141.1681   XYZZ       0.0000   YYZZ    -139.6024
      XZZZ      -0.0000   YZZZ      -0.0000   ZZZZ     -21.9141
 -----------------------------------------------------------------
 Calculating analytic gradient of the SCF energy
 Gradient of SCF Energy
            1           2           3           4           5           6
    1  -0.0253987  -0.0000061   0.0254065   0.0254018  -0.0824085  -0.0824021
    2  -0.0340239   0.0608891  -0.0340168   0.0340213   0.0354834  -0.0354963
    3   0.0000006  -0.0000001  -0.0000002  -0.0000007   0.0000001   0.0000008
            7           8           9          10
    1   0.0000005  -0.0254050   0.0824091   0.0824026
    2  -0.0608876   0.0340208  -0.0354843   0.0354944
    3  -0.0000001   0.0000001  -0.0000001  -0.0000004
 Max gradient component =       8.241E-02
 RMS gradient           =       3.951E-02
 Gradient time:  CPU 1.20 s  wall 0.30 s
 Geometry Optimization Parameters
   NAtoms,    NIC,     NZ,  NCons,   NDum,   NFix, NCnnct, MaxDiis
       10      60       0       0       0       0       0       0


** GEOMETRY OPTIMIZATION IN DELOCALIZED INTERNAL COORDINATES **
   Searching for a Minimum

   Optimization Cycle:   1

                       Coordinates (Angstroms)
     ATOM                X               Y               Z
      1  C         2.1422900000    1.3734400000    0.0000100000
      2  N        -0.0001800000    2.7472200000    0.0000000000
      3  C        -2.1424800000    1.3731600000    0.0000000000
      4  C        -2.1423100000   -1.3734300000    0.0000000000
      5  H        -3.9956200000    2.2415100000    0.0000000000
      6  H        -3.9953300000   -2.2420700000    0.0000200000
      7  N         0.0001900000   -2.7472200000    0.0000000000
      8  C         2.1424900000   -1.3731600000    0.0000000000
      9  H         3.9956100000   -2.2415200000    0.0000000000
     10  H         3.9953200000    2.2420600000    0.0000000000
   Point Group: c1    Number of degrees of freedom:    24


   Energy is   -258.530231185


 Attempting to Generate Delocalized Internal Coordinates

 24 Hessian modes will be used to form the next step
  Hessian Eigenvalues:
     0.002000    0.002000    0.002000    0.002000    0.002000    0.002000
     0.002000    0.025062    0.029127    0.033561    0.033561    0.039916
     0.039916    0.039917    0.039917    0.041455    0.042449    0.160000
     0.160000    0.160000    0.160000    0.220000    0.227532    0.237143

 Minimum Search - Taking Simple RFO Step
 Searching for Lamda that Minimizes Along All modes
 Value Taken    Lamda =  -0.20844211
 Calculated Step too Large.  Step scaled by  0.326124
 Step Taken.  Stepsize is  0.300000

                             Maximum     Tolerance    Cnvgd?
         Gradient           0.175904      0.000300      NO
         Displacement       0.239340      0.001200      NO
         Energy change     *********      0.000001      NO


 New Cartesian Coordinates Obtained by Inverse Iteration

 Displacement from previous Coordinates is:  0.450006
 ----------------------------------------------------------------
             Standard Nuclear Orientation (Angstroms)
    I     Atom           X                Y                Z
 ----------------------------------------------------------------
    1      C       2.0981706659     1.3616442055     0.0000099306
    2      N      -0.0001775800     2.7190892544     0.0000000414
    3      C      -2.0983592360     1.3613688413     0.0000001544
    4      C      -2.0981911624    -1.3616341309     0.0000000240
    5      H      -3.8926736749     2.2083776406     0.0000000000
    6      H      -3.8923901751    -2.2089219642     0.0000196241
    7      N       0.0001894961    -2.7190910144     0.0000000997
    8      C       2.0983696105    -1.3613704477    -0.0000000641
    9      H       3.8926639728    -2.2083884658     0.0000001640
   10      H       3.8923780831     2.2089160812     0.0000000291
 ----------------------------------------------------------------
 Nuclear Repulsion Energy =   110.5302087638 hartrees
 There are       21 alpha and       21 beta electrons
 Applying Cartesian multipole field
    Component          Value
    ---------          -----
     (2,0,0)        1.00000E-11
     (0,2,0)        2.00000E-11
     (0,0,2)       -3.00000E-10
 Nucleus-field energy     =     0.0000000179 hartrees
 Requested basis set is STO-3G
 There are 16 shells and 34 basis functions
 tim1(1): 
  5.549999999985289E-004
 tim1(2): 
  0.000000000000000E+000
 A cutoff of  1.0D-11 yielded    113 shell pairs
 There are       602 function pairs
 Smallest overlap matrix eigenvalue = 6.92E-01
 Guess MOs from SCF MO coefficient file
 Reading MOs from coefficient file
 Reading MOs from coefficient file
 A restricted hybrid HF-DFT SCF calculation will be
 performed using Pulay DIIS extrapolation
 Exchange:     0.2500 Hartree-Fock + 0.7500 PBE
 Correlation:  1.0000 PBE
 Using Euler-Maclaurin-Lebedev (75,302) quadrature formula
 SCF converges when DIIS error is below 1.0E-08
Geometry optimization detected.  Setting ReadMinima to 0
Setting SaveMinima to 0
 using 4 threads for integral computing 
 -------------------------------------------------------
 OpenMP BLAS3 based DFT computing Module                
 Release: version 1.0, May 2013, Q-Chem Inc. Pittsburgh 
 -------------------------------------------------------
 ---------------------------------------
  Cycle       Energy         DIIS Error
 ---------------------------------------
    1    -258.6359905137      2.30E-03
    2    -258.5987433161      2.18E-03
    3    -258.5861821414      7.76E-03
    4    -258.5999481500      2.18E-04
    5    -258.5999508902      2.59E-04
    6    -258.5999731651      1.01E-04
    7    -258.5999821842      1.68E-05
    8    -258.5999823409      3.31E-05
    9    -258.5999826275      8.57E-06
   10    -258.5999826016      1.31E-05
   11    -258.5999826488      3.84E-06
   12    -258.5999826517      2.60E-06
   13    -258.5999826539      1.75E-07
   14    -258.5999826539      5.48E-08
   15    -258.5999826539      5.46E-08
   16    -258.5999826539      1.12E-08
   17    -258.5999826539      3.83E-09 Convergence criterion met
 ---------------------------------------
 SCF time:  CPU 9.26 s  wall 2.32 s
 SCF   energy in the final basis set = -258.5999826539
 Total energy in the final basis set = -258.5999826539
 
 --------------------------------------------------------------
 
                    Orbital Energies (a.u.)
 --------------------------------------------------------------
 
 Alpha MOs
 -- Occupied --
-14.127 -14.127 -10.053 -10.053 -10.052 -10.052  -0.630  -0.629
 -0.514  -0.506  -0.484  -0.474  -0.199  -0.198  -0.187  -0.182
 -0.171  -0.130  -0.118  -0.116  -0.113
 -- Virtual --
 -0.048  -0.038  -0.029  -0.022  -0.016  -0.014   0.001   0.018
  0.045   0.054   0.055   0.065   0.068
 --------------------------------------------------------------
 
          Ground-State Mulliken Net Atomic Charges

     Atom                 Charge (a.u.)
  ----------------------------------------
      1 C                     0.104441
      2 N                    -0.079809
      3 C                     0.104439
      4 C                     0.104442
      5 H                    -0.064535
      6 H                    -0.064537
      7 N                    -0.079808
      8 C                     0.104439
      9 H                    -0.064536
     10 H                    -0.064537
  ----------------------------------------
  Sum of atomic charges =     0.000000

 -----------------------------------------------------------------
                    Cartesian Multipole Moments
 -----------------------------------------------------------------
    Charge (ESU x 10^10)
                 0.0000
    Dipole Moment (Debye)
         X      -0.0001      Y      -0.0000      Z       0.0000
       Tot       0.0001
    Quadrupole Moments (Debye-Ang)
        XX     -34.6002     XY       0.0000     YY     -37.8727
        XZ       0.0000     YZ      -0.0000     ZZ     -30.8787
    Octopole Moments (Debye-Ang^2)
       XXX      -0.0004    XXY      -0.0002    XYY       0.0002
       YYY      -0.0003    XXZ      -0.0001    XYZ      -0.0000
       YYZ      -0.0001    XZZ      -0.0000    YZZ      -0.0000
       ZZZ      -0.0002
    Hexadecapole Moments (Debye-Ang^3)
      XXXX    -954.6733   XXXY      -0.0081   XXYY    -292.6278
      XYYY      -0.0080   YYYY    -767.6931   XXXZ       0.0001
      XXYZ       0.0001   XYYZ       0.0001   YYYZ      -0.0006
      XXZZ    -135.4026   XYZZ       0.0002   YYZZ    -136.4779
      XZZZ      -0.0000   YZZZ      -0.0001   ZZZZ     -21.9831
 -----------------------------------------------------------------
 Calculating analytic gradient of the SCF energy
 Gradient of SCF Energy
            1           2           3           4           5           6
    1  -0.0239535  -0.0000066   0.0239621   0.0239573  -0.0858381  -0.0858315
    2  -0.0380830   0.0652959  -0.0380755   0.0380797   0.0367356  -0.0367490
    3   0.0000006  -0.0000001  -0.0000003  -0.0000006   0.0000001   0.0000008
            7           8           9          10
    1   0.0000002  -0.0239604   0.0858386   0.0858320
    2  -0.0652944   0.0380799  -0.0367364   0.0367471
    3  -0.0000002   0.0000002  -0.0000001  -0.0000004
 Max gradient component =       8.584E-02
 RMS gradient           =       4.143E-02
 Gradient time:  CPU 1.14 s  wall 0.29 s
 Geometry Optimization Parameters
   NAtoms,    NIC,     NZ,  NCons,   NDum,   NFix, NCnnct, MaxDiis
       10      60       0       0       0       0       0       0

 Cartesian Hessian Update
 Hessian Updated using BFGS Update
**WARNING** Hereditary positive definiteness endangered


** GEOMETRY OPTIMIZATION IN DELOCALIZED INTERNAL COORDINATES **
   Searching for a Minimum

   Optimization Cycle:   2

                       Coordinates (Angstroms)
     ATOM                X               Y               Z
      1  C         2.0981706659    1.3616442055    0.0000099306
      2  N        -0.0001775800    2.7190892544    0.0000000414
      3  C        -2.0983592360    1.3613688413    0.0000001544
      4  C        -2.0981911624   -1.3616341309    0.0000000240
      5  H        -3.8926736749    2.2083776406    0.0000000000
      6  H        -3.8923901751   -2.2089219642    0.0000196241
      7  N         0.0001894961   -2.7190910144    0.0000000997
      8  C         2.0983696105   -1.3613704477   -0.0000000641
      9  H         3.8926639728   -2.2083884658    0.0000001640
     10  H         3.8923780831    2.2089160812    0.0000000291
   Point Group: c1    Number of degrees of freedom:    24


   Energy is   -258.599982654

 Hessian Updated using BFGS Update
**WARNING** Hereditary positive definiteness endangered

 24 Hessian modes will be used to form the next step
  Hessian Eigenvalues:
    -0.045323    0.002000    0.002000    0.002000    0.002000    0.002000
     0.002000    0.002000    0.023843    0.029127    0.033561    0.033839
     0.039916    0.039916    0.039917    0.041455    0.042449    0.157829
     0.160000    0.160000    0.160000    0.220000    0.227532    0.231675
**WARNING** Hessian does not have the Desired Local Structure

 Minimum Search - Taking Simple RFO Step
 Searching for Lamda that Minimizes Along All modes
 Value Taken    Lamda =  -0.26102833
 Calculated Step too Large.  Step scaled by  0.274225
 Step Taken.  Stepsize is  0.300000

                             Maximum     Tolerance    Cnvgd?
         Gradient           0.183782      0.000300      NO
         Displacement       0.229194      0.001200      NO
         Energy change     -0.069751      0.000001      NO


 New Cartesian Coordinates Obtained by Inverse Iteration

 Displacement from previous Coordinates is:  0.474089
 ----------------------------------------------------------------
             Standard Nuclear Orientation (Angstroms)
    I     Atom           X                Y                Z
 ----------------------------------------------------------------
    1      C       2.0462396037     1.3532398009     0.0000098939
    2      N      -0.0001755210     2.6995914154     0.0000000629
    3      C      -2.0464272596     1.3529699389     0.0000003491
    4      C      -2.0462609230    -1.3532296024     0.0000000111
    5      H      -3.7827116338     2.1821884687    -0.0000000234
    6      H      -3.7824342083    -2.1827156624     0.0000192684
    7      N       0.0001901987    -2.6995953399     0.0000001918
    8      C       2.0464382361    -1.3529734890    -0.0000001466
    9      H       3.7827023746    -2.1822007428     0.0000003680
   10      H       3.7824191326     2.1827152125     0.0000000279
 ----------------------------------------------------------------
 Nuclear Repulsion Energy =   112.4591468956 hartrees
 There are       21 alpha and       21 beta electrons
 Applying Cartesian multipole field
    Component          Value
    ---------          -----
     (2,0,0)        1.00000E-11
     (0,2,0)        2.00000E-11
     (0,0,2)       -3.00000E-10
 Nucleus-field energy     =     0.0000000174 hartrees
 Requested basis set is STO-3G
 There are 16 shells and 34 basis functions
 tim1(1): 
  5.039999999922884E-004
 tim1(2): 
  0.000000000000000E+000
 A cutoff of  1.0D-11 yielded    113 shell pairs
 There are       602 function pairs
 Smallest overlap matrix eigenvalue = 6.82E-01
 Guess MOs from SCF MO coefficient file
 Reading MOs from coefficient file
 Reading MOs from coefficient file
 A restricted hybrid HF-DFT SCF calculation will be
 performed using Pulay DIIS extrapolation
 Exchange:     0.2500 Hartree-Fock + 0.7500 PBE
 Correlation:  1.0000 PBE
 Using Euler-Maclaurin-Lebedev (75,302) quadrature formula
 SCF converges when DIIS error is below 1.0E-08
Geometry optimization detected.  Setting ReadMinima to 0
Setting SaveMinima to 0
 using 4 threads for integral computing 
 -------------------------------------------------------
 OpenMP BLAS3 based DFT computing Module                
 Release: version 1.0, May 2013, Q-Chem Inc. Pittsburgh 
 -------------------------------------------------------
 ---------------------------------------
  Cycle       Energy         DIIS Error
 ---------------------------------------
    1    -258.7128943493      2.54E-03
    2    -258.6725764894      1.88E-03
    3    -258.6577695357      8.49E-03
    4    -258.6734660265      2.47E-04
    5    -258.6734573022      3.63E-04
    6    -258.6735017956      1.12E-04
    7    -258.6735123883      1.84E-05
    8    -258.6735123770      4.28E-05
    9    -258.6735127936      9.64E-06
   10    -258.6735127537      1.53E-05
   11    -258.6735128218      4.83E-06
   12    -258.6735128274      2.55E-06
   13    -258.6735128292      3.63E-07
   14    -258.6735128293      1.91E-07
   15    -258.6735128293      2.27E-08
   16    -258.6735128293      9.10E-09 Convergence criterion met
 ---------------------------------------
 SCF time:  CPU 9.57 s  wall 2.41 s
 SCF   energy in the final basis set = -258.6735128293
 Total energy in the final basis set = -258.6735128293
 
 --------------------------------------------------------------
 
                    Orbital Energies (a.u.)
 --------------------------------------------------------------
 
 Alpha MOs
 -- Occupied --
-14.128 -14.128 -10.052 -10.052 -10.052 -10.052  -0.632  -0.631
 -0.515  -0.505  -0.484  -0.473  -0.206  -0.204  -0.193  -0.187
 -0.174  -0.131  -0.119  -0.117  -0.114
 -- Virtual --
 -0.048  -0.038  -0.027  -0.020  -0.012  -0.011   0.010   0.024
  0.053   0.065   0.067   0.077   0.081
 --------------------------------------------------------------
 
          Ground-State Mulliken Net Atomic Charges

     Atom                 Charge (a.u.)
  ----------------------------------------
      1 C                     0.100829
      2 N                    -0.082459
      3 C                     0.100828
      4 C                     0.100832
      5 H                    -0.059598
      6 H                    -0.059601
      7 N                    -0.082458
      8 C                     0.100828
      9 H                    -0.059599
     10 H                    -0.059601
  ----------------------------------------
  Sum of atomic charges =    -0.000000

 -----------------------------------------------------------------
                    Cartesian Multipole Moments
 -----------------------------------------------------------------
    Charge (ESU x 10^10)
                -0.0000
    Dipole Moment (Debye)
         X      -0.0001      Y      -0.0000      Z       0.0000
       Tot       0.0001
    Quadrupole Moments (Debye-Ang)
        XX     -33.0139     XY       0.0001     YY     -37.5829
        XZ       0.0000     YZ      -0.0000     ZZ     -30.9221
    Octopole Moments (Debye-Ang^2)
       XXX      -0.0006    XXY      -0.0002    XYY       0.0002
       YYY      -0.0003    XXZ      -0.0001    XYZ      -0.0000
       YYZ      -0.0001    XZZ      -0.0001    YZZ       0.0000
       ZZZ      -0.0002
    Hexadecapole Moments (Debye-Ang^3)
      XXXX    -876.2000   XXXY      -0.0066   XXYY    -273.3159
      XYYY      -0.0046   YYYY    -760.5930   XXXZ       0.0000
      XXYZ       0.0001   XYYZ       0.0001   YYYZ      -0.0006
      XXZZ    -129.0531   XYZZ       0.0005   YYZZ    -134.1044
      XZZZ      -0.0000   YZZZ      -0.0001   ZZZZ     -22.0569
 -----------------------------------------------------------------
 Calculating analytic gradient of the SCF energy
 Gradient of SCF Energy
            1           2           3           4           5           6
    1  -0.0212184  -0.0000073   0.0212279   0.0212230  -0.0887870  -0.0887804
    2  -0.0432744   0.0713117  -0.0432668   0.0432704   0.0378689  -0.0378826
    3   0.0000006  -0.0000001  -0.0000003  -0.0000006   0.0000001   0.0000009
            7           8           9          10
    1  -0.0000002  -0.0212258   0.0887874   0.0887808
    2  -0.0713099   0.0432716  -0.0378696   0.0378808
    3  -0.0000002   0.0000002  -0.0000001  -0.0000004
 Max gradient component =       8.879E-02
 RMS gradient           =       4.349E-02
 Gradient time:  CPU 1.22 s  wall 0.31 s
 Geometry Optimization Parameters
   NAtoms,    NIC,     NZ,  NCons,   NDum,   NFix, NCnnct, MaxDiis
       10      60       0       0       0       0       0       0

 Cartesian Hessian Update
 Hessian Updated using BFGS Update
**WARNING** Hereditary positive definiteness endangered


** GEOMETRY OPTIMIZATION IN DELOCALIZED INTERNAL COORDINATES **
   Searching for a Minimum

   Optimization Cycle:   3

                       Coordinates (Angstroms)
     ATOM                X               Y               Z
      1  C         2.0462396037    1.3532398009    0.0000098939
      2  N        -0.0001755210    2.6995914154    0.0000000629
      3  C        -2.0464272596    1.3529699389    0.0000003491
      4  C        -2.0462609230   -1.3532296024    0.0000000111
      5  H        -3.7827116338    2.1821884687   -0.0000000234
      6  H        -3.7824342083   -2.1827156624    0.0000192684
      7  N         0.0001901987   -2.6995953399    0.0000001918
      8  C         2.0464382361   -1.3529734890   -0.0000001466
      9  H         3.7827023746   -2.1822007428    0.0000003680
     10  H         3.7824191326    2.1827152125    0.0000000279
   Point Group: c1    Number of degrees of freedom:    24


   Energy is   -258.673512829

 Hessian Updated using BFGS Update
**WARNING** Hereditary positive definiteness endangered

 24 Hessian modes will be used to form the next step
  Hessian Eigenvalues:
    -0.051452    0.002000    0.002000    0.002000    0.002000    0.002000
     0.002000    0.002000    0.022665    0.029127    0.032117    0.033561
     0.039916    0.039916    0.039917    0.041455    0.042449    0.157126
     0.160000    0.160000    0.160000    0.220000    0.227532    0.230398
**WARNING** Hessian does not have the Desired Local Structure

 Minimum Search - Taking Simple RFO Step
 Searching for Lamda that Minimizes Along All modes
 Value Taken    Lamda =  -0.27509139
 Calculated Step too Large.  Step scaled by  0.273620
 Step Taken.  Stepsize is  0.300000

                             Maximum     Tolerance    Cnvgd?
         Gradient           0.192145      0.000300      NO
         Displacement       0.224969      0.001200      NO
         Energy change     -0.073530      0.000001      NO


 New Cartesian Coordinates Obtained by Inverse Iteration

 Displacement from previous Coordinates is:  0.488339
 ----------------------------------------------------------------
             Standard Nuclear Orientation (Angstroms)
    I     Atom           X                Y                Z
 ----------------------------------------------------------------
    1      C       1.9894095696     1.3462039331     0.0000098276
    2      N      -0.0001735942     2.6833341359     0.0000000890
    3      C      -1.9895966404     1.3459402719     0.0000005351
    4      C      -1.9894319785    -1.3461935106     0.0000000000
    5      H      -3.6697406445     2.1593529904    -0.0000000415
    6      H      -3.6694688881    -2.1598624400     0.0000189151
    7      N       0.0001914958    -2.6833403455     0.0000002766
    8      C       1.9896082470    -1.3459458357    -0.0000002167
    9      H       3.6697319604    -2.1593668900     0.0000005844
   10      H       3.6694504729     2.1598676905     0.0000000316
 ----------------------------------------------------------------
 Nuclear Repulsion Energy =   114.5086742191 hartrees
 There are       21 alpha and       21 beta electrons
 Applying Cartesian multipole field
    Component          Value
    ---------          -----
     (2,0,0)        1.00000E-11
     (0,2,0)        2.00000E-11
     (0,0,2)       -3.00000E-10
 Nucleus-field energy     =     0.0000000170 hartrees
 Requested basis set is STO-3G
 There are 16 shells and 34 basis functions
 tim1(1): 
  5.110000000030368E-004
 tim1(2): 
  0.000000000000000E+000
 A cutoff of  1.0D-11 yielded    113 shell pairs
 There are       602 function pairs
 Smallest overlap matrix eigenvalue = 6.71E-01
 Guess MOs from SCF MO coefficient file
 Reading MOs from coefficient file
 Reading MOs from coefficient file
 A restricted hybrid HF-DFT SCF calculation will be
 performed using Pulay DIIS extrapolation
 Exchange:     0.2500 Hartree-Fock + 0.7500 PBE
 Correlation:  1.0000 PBE
 Using Euler-Maclaurin-Lebedev (75,302) quadrature formula
 SCF converges when DIIS error is below 1.0E-08
Geometry optimization detected.  Setting ReadMinima to 0
Setting SaveMinima to 0
 using 4 threads for integral computing 
 -------------------------------------------------------
 OpenMP BLAS3 based DFT computing Module                
 Release: version 1.0, May 2013, Q-Chem Inc. Pittsburgh 
 -------------------------------------------------------
 ---------------------------------------
  Cycle       Energy         DIIS Error
 ---------------------------------------
    1    -258.7939595305      2.80E-03
    2    -258.7501532640      1.59E-03
    3    -258.7365554907      8.30E-03
    4    -258.7507718336      3.62E-04
    5    -258.7507757995      4.35E-04
    6    -258.7508380707      1.24E-04
    7    -258.7508487720      2.44E-05
    8    -258.7508470931      9.62E-05
    9    -258.7508491826      7.24E-06
   10    -258.7508491485      1.33E-05
   11    -258.7508491984      5.17E-06
   12    -258.7508492052      2.27E-06
   13    -258.7508492065      6.06E-07
   14    -258.7508492066      1.05E-07
   15    -258.7508492066      1.68E-08
   16    -258.7508492066      6.71E-09 Convergence criterion met
 ---------------------------------------
 SCF time:  CPU 8.97 s  wall 2.25 s
 SCF   energy in the final basis set = -258.7508492066
 Total energy in the final basis set = -258.7508492066
 
 --------------------------------------------------------------
 
                    Orbital Energies (a.u.)
 --------------------------------------------------------------
 
 Alpha MOs
 -- Occupied --
-14.130 -14.130 -10.052 -10.052 -10.052 -10.052  -0.634  -0.633
 -0.515  -0.504  -0.485  -0.472  -0.213  -0.210  -0.199  -0.193
 -0.178  -0.132  -0.120  -0.117  -0.115
 -- Virtual --
 -0.049  -0.037  -0.024  -0.019  -0.008  -0.006   0.020   0.031
  0.063   0.078   0.080   0.090   0.094
 --------------------------------------------------------------
 
          Ground-State Mulliken Net Atomic Charges

     Atom                 Charge (a.u.)
  ----------------------------------------
      1 C                     0.096900
      2 N                    -0.085797
      3 C                     0.096898
      4 C                     0.096903
      5 H                    -0.054000
      6 H                    -0.054002
      7 N                    -0.085796
      8 C                     0.096898
      9 H                    -0.054001
     10 H                    -0.054003
  ----------------------------------------
  Sum of atomic charges =    -0.000000

 -----------------------------------------------------------------
                    Cartesian Multipole Moments
 -----------------------------------------------------------------
    Charge (ESU x 10^10)
                -0.0000
    Dipole Moment (Debye)
         X      -0.0001      Y      -0.0000      Z       0.0000
       Tot       0.0001
    Quadrupole Moments (Debye-Ang)
        XX     -31.5167     XY       0.0002     YY     -37.3428
        XZ       0.0000     YZ      -0.0000     ZZ     -30.9647
    Octopole Moments (Debye-Ang^2)
       XXX      -0.0006    XXY      -0.0002    XYY       0.0002
       YYY      -0.0004    XXZ      -0.0001    XYZ      -0.0000
       YYZ      -0.0001    XZZ      -0.0001    YZZ       0.0000
       ZZZ      -0.0002
    Hexadecapole Moments (Debye-Ang^3)
      XXXX    -800.7168   XXXY      -0.0050   XXYY    -254.8963
      XYYY      -0.0012   YYYY    -756.4704   XXXZ       0.0000
      XXYZ       0.0001   XYYZ       0.0001   YYYZ      -0.0005
      XXZZ    -122.4460   XYZZ       0.0008   YYZZ    -132.0229
      XZZZ      -0.0000   YZZZ      -0.0001   ZZZZ     -22.1321
 -----------------------------------------------------------------
 Calculating analytic gradient of the SCF energy
 Gradient of SCF Energy
            1           2           3           4           5           6
    1  -0.0173092  -0.0000081   0.0173198   0.0173147  -0.0911982  -0.0911916
    2  -0.0490924   0.0786708  -0.0490846   0.0490873   0.0387996  -0.0388137
    3   0.0000006  -0.0000002  -0.0000003  -0.0000006   0.0000001   0.0000009
            7           8           9          10
    1  -0.0000006  -0.0173173   0.0911985   0.0911919
    2  -0.0786687   0.0490900  -0.0388002   0.0388119
    3  -0.0000002   0.0000002  -0.0000001  -0.0000004
 Max gradient component =       9.120E-02
 RMS gradient           =       4.565E-02
 Gradient time:  CPU 1.17 s  wall 0.29 s
 Geometry Optimization Parameters
   NAtoms,    NIC,     NZ,  NCons,   NDum,   NFix, NCnnct, MaxDiis
       10      60       0       0       0       0       0       0

 Cartesian Hessian Update
 Hessian Updated using BFGS Update
**WARNING** Hereditary positive definiteness endangered


** GEOMETRY OPTIMIZATION IN DELOCALIZED INTERNAL COORDINATES **
   Searching for a Minimum

   Optimization Cycle:   4

                       Coordinates (Angstroms)
     ATOM                X               Y               Z
      1  C         1.9894095696    1.3462039331    0.0000098276
      2  N        -0.0001735942    2.6833341359    0.0000000890
      3  C        -1.9895966404    1.3459402719    0.0000005351
      4  C        -1.9894319785   -1.3461935106    0.0000000000
      5  H        -3.6697406445    2.1593529904   -0.0000000415
      6  H        -3.6694688881   -2.1598624400    0.0000189151
      7  N         0.0001914958   -2.6833403455    0.0000002766
      8  C         1.9896082470   -1.3459458357   -0.0000002167
      9  H         3.6697319604   -2.1593668900    0.0000005844
     10  H         3.6694504729    2.1598676905    0.0000000316
   Point Group: c1    Number of degrees of freedom:    24


   Energy is   -258.750849207

 Hessian Updated using BFGS Update
**WARNING** Hereditary positive definiteness endangered

 23 Hessian modes will be used to form the next step
  Hessian Eigenvalues:
    -0.056642    0.002000    0.002000    0.002000    0.002000    0.002000
     0.002000    0.002000    0.021666    0.029127    0.030521    0.033561
     0.039916    0.039916    0.039917    0.041455    0.042449    0.156753
     0.160000    0.160000    0.220000    0.227532    0.229644
**WARNING** Hessian does not have the Desired Local Structure

 Minimum Search - Taking Simple RFO Step
 Searching for Lamda that Minimizes Along All modes
 Value Taken    Lamda =  -0.28919213
 Calculated Step too Large.  Step scaled by  0.273546
 Step Taken.  Stepsize is  0.300000

                             Maximum     Tolerance    Cnvgd?
         Gradient           0.200935      0.000300      NO
         Displacement       0.222714      0.001200      NO
         Energy change     -0.077336      0.000001      NO


 New Cartesian Coordinates Obtained by Inverse Iteration

 Displacement from previous Coordinates is:  0.496379
 ----------------------------------------------------------------
             Standard Nuclear Orientation (Angstroms)
    I     Atom           X                Y                Z
 ----------------------------------------------------------------
    1      C       1.9291179839     1.3400144036     0.0000097442
    2      N      -0.0001717245     2.6678282698     0.0000001184
    3      C      -1.9293048278     1.3397576144     0.0000007189
    4      C      -1.9291417257    -1.3400036868    -0.0000000075
    5      H      -3.5555966487     2.1386895165    -0.0000000585
    6      H      -3.5553301431    -2.1391809228     0.0000185649
    7      N       0.0001931717    -2.6678367929     0.0000003581
    8      C       1.9293169831    -1.3397651125    -0.0000002803
    9      H       3.5555886841    -2.1387048043     0.0000008066
   10      H       3.5553082470     2.1391915149     0.0000000362
 ----------------------------------------------------------------
 Nuclear Repulsion Energy =   116.6958765411 hartrees
 There are       21 alpha and       21 beta electrons
 Applying Cartesian multipole field
    Component          Value
    ---------          -----
     (2,0,0)        1.00000E-11
     (0,2,0)        2.00000E-11
     (0,0,2)       -3.00000E-10
 Nucleus-field energy     =     0.0000000165 hartrees
 Requested basis set is STO-3G
 There are 16 shells and 34 basis functions
 tim1(1): 
  4.870000000067876E-004
 tim1(2): 
  0.000000000000000E+000
 A cutoff of  1.0D-11 yielded    113 shell pairs
 There are       602 function pairs
 Smallest overlap matrix eigenvalue = 6.57E-01
 Guess MOs from SCF MO coefficient file
 Reading MOs from coefficient file
 Reading MOs from coefficient file
 A restricted hybrid HF-DFT SCF calculation will be
 performed using Pulay DIIS extrapolation
 Exchange:     0.2500 Hartree-Fock + 0.7500 PBE
 Correlation:  1.0000 PBE
 Using Euler-Maclaurin-Lebedev (75,302) quadrature formula
 SCF converges when DIIS error is below 1.0E-08
Geometry optimization detected.  Setting ReadMinima to 0
Setting SaveMinima to 0
 using 4 threads for integral computing 
 -------------------------------------------------------
 OpenMP BLAS3 based DFT computing Module                
 Release: version 1.0, May 2013, Q-Chem Inc. Pittsburgh 
 -------------------------------------------------------
 ---------------------------------------
  Cycle       Energy         DIIS Error
 ---------------------------------------
    1    -258.8793042064      3.09E-03
    2    -258.8316161510      1.28E-03
    3    -258.8233466437      6.65E-03
    4    -258.8319553214      6.63E-04
    5    -258.8320494134      4.59E-04
    6    -258.8321139625      1.36E-04
    7    -258.8321237203      3.36E-05
    8    -258.8321216352      1.07E-04
    9    -258.8321241812      6.08E-06
   10    -258.8321241674      9.30E-06
   11    -258.8321241957      2.83E-06
   12    -258.8321241965      2.18E-06
   13    -258.8321241975      8.91E-07
   14    -258.8321241978      7.55E-08
   15    -258.8321241978      9.64E-09 Convergence criterion met
 ---------------------------------------
 SCF time:  CPU 8.58 s  wall 2.15 s
 SCF   energy in the final basis set = -258.8321241978
 Total energy in the final basis set = -258.8321241978
 
 --------------------------------------------------------------
 
                    Orbital Energies (a.u.)
 --------------------------------------------------------------
 
 Alpha MOs
 -- Occupied --
-14.132 -14.132 -10.051 -10.051 -10.051 -10.051  -0.637  -0.636
 -0.516  -0.503  -0.487  -0.471  -0.219  -0.215  -0.204  -0.199
 -0.182  -0.134  -0.122  -0.118  -0.116
 -- Virtual --
 -0.049  -0.037  -0.020  -0.018  -0.005   0.001   0.031   0.039
  0.073   0.091   0.093   0.104   0.108
 --------------------------------------------------------------
 
          Ground-State Mulliken Net Atomic Charges

     Atom                 Charge (a.u.)
  ----------------------------------------
      1 C                     0.092704
      2 N                    -0.089809
      3 C                     0.092703
      4 C                     0.092708
      5 H                    -0.047798
      6 H                    -0.047801
      7 N                    -0.089807
      8 C                     0.092701
      9 H                    -0.047799
     10 H                    -0.047802
  ----------------------------------------
  Sum of atomic charges =     0.000000

 -----------------------------------------------------------------
                    Cartesian Multipole Moments
 -----------------------------------------------------------------
    Charge (ESU x 10^10)
                 0.0000
    Dipole Moment (Debye)
         X      -0.0001      Y      -0.0000      Z       0.0000
       Tot       0.0001
    Quadrupole Moments (Debye-Ang)
        XX     -30.1393     XY       0.0003     YY     -37.1466
        XZ       0.0000     YZ      -0.0000     ZZ     -31.0046
    Octopole Moments (Debye-Ang^2)
       XXX      -0.0007    XXY      -0.0002    XYY       0.0002
       YYY      -0.0004    XXZ      -0.0001    XYZ      -0.0000
       YYZ      -0.0001    XZZ      -0.0001    YZZ       0.0000
       ZZZ      -0.0002
    Hexadecapole Moments (Debye-Ang^3)
      XXXX    -729.6480   XXXY      -0.0036   XXYY    -237.4621
      XYYY       0.0022   YYYY    -754.0228   XXXZ      -0.0000
      XXYZ       0.0000   XYYZ       0.0001   YYYZ      -0.0005
      XXZZ    -115.7340   XYZZ       0.0011   YYZZ    -130.0631
      XZZZ      -0.0000   YZZZ      -0.0001   ZZZZ     -22.2057
 -----------------------------------------------------------------
 Calculating analytic gradient of the SCF energy
 Gradient of SCF Energy
            1           2           3           4           5           6
    1  -0.0123287  -0.0000089   0.0123404   0.0123352  -0.0930693  -0.0930626
    2  -0.0553335   0.0872609  -0.0553259   0.0553275   0.0395011  -0.0395153
    3   0.0000006  -0.0000002  -0.0000004  -0.0000006   0.0000001   0.0000009
            7           8           9          10
    1  -0.0000010  -0.0123373   0.0930694   0.0930629
    2  -0.0872586   0.0553317  -0.0395016   0.0395138
    3  -0.0000002   0.0000003  -0.0000001  -0.0000004
 Max gradient component =       9.307E-02
 RMS gradient           =       4.795E-02
 Gradient time:  CPU 1.16 s  wall 0.29 s
 Geometry Optimization Parameters
   NAtoms,    NIC,     NZ,  NCons,   NDum,   NFix, NCnnct, MaxDiis
       10      60       0       0       0       0       0       0

 Cartesian Hessian Update
 Hessian Updated using BFGS Update
**WARNING** Hereditary positive definiteness endangered


** GEOMETRY OPTIMIZATION IN DELOCALIZED INTERNAL COORDINATES **
   Searching for a Minimum

   Optimization Cycle:   5

                       Coordinates (Angstroms)
     ATOM                X               Y               Z
      1  C         1.9291179839    1.3400144036    0.0000097442
      2  N        -0.0001717245    2.6678282698    0.0000001184
      3  C        -1.9293048278    1.3397576144    0.0000007189
      4  C        -1.9291417257   -1.3400036868   -0.0000000075
      5  H        -3.5555966487    2.1386895165   -0.0000000585
      6  H        -3.5553301431   -2.1391809228    0.0000185649
      7  N         0.0001931717   -2.6678367929    0.0000003581
      8  C         1.9293169831   -1.3397651125   -0.0000002803
      9  H         3.5555886841   -2.1387048043    0.0000008066
     10  H         3.5553082470    2.1391915149    0.0000000362
   Point Group: c1    Number of degrees of freedom:    24


   Energy is   -258.832124198

 Hessian Updated using BFGS Update
**WARNING** Hereditary positive definiteness endangered

 24 Hessian modes will be used to form the next step
  Hessian Eigenvalues:
    -0.061582    0.002000    0.002000    0.002000    0.002000    0.002000
     0.002000    0.002000    0.020619    0.029127    0.029199    0.033561
     0.039916    0.039916    0.039917    0.041455    0.042449    0.156602
     0.160000    0.160000    0.160000    0.220000    0.227532    0.229306
**WARNING** Hessian does not have the Desired Local Structure

 Minimum Search - Taking Simple RFO Step
 Searching for Lamda that Minimizes Along All modes
 Value Taken    Lamda =  -0.30367788
 Calculated Step too Large.  Step scaled by  0.273610
 Step Taken.  Stepsize is  0.300000

                             Maximum     Tolerance    Cnvgd?
         Gradient           0.210131      0.000300      NO
         Displacement       0.221240      0.001200      NO
         Energy change     -0.081275      0.000001      NO


 New Cartesian Coordinates Obtained by Inverse Iteration

 Displacement from previous Coordinates is:  0.500295
 ----------------------------------------------------------------
             Standard Nuclear Orientation (Angstroms)
    I     Atom           X                Y                Z
 ----------------------------------------------------------------
    1      C       1.8662451381     1.3344686988     0.0000096482
    2      N      -0.0001698632     2.6517015219     0.0000001535
    3      C      -1.8664321418     1.3342194492     0.0000008986
    4      C      -1.8662704695    -1.3344576655    -0.0000000122
    5      H      -3.4413599823     2.1197449820    -0.0000000772
    6      H      -3.4410983270    -2.1202182913     0.0000182208
    7      N       0.0001951108    -2.6517123326     0.0000004360
    8      C       1.8664446288    -1.3342286864    -0.0000003372
    9      H       3.4413528990    -2.1197610873     0.0000010290
   10      H       3.4410730072     2.1202334113     0.0000000416
 ----------------------------------------------------------------
 Nuclear Repulsion Energy =   119.0340189554 hartrees
 There are       21 alpha and       21 beta electrons
 Applying Cartesian multipole field
    Component          Value
    ---------          -----
     (2,0,0)        1.00000E-11
     (0,2,0)        2.00000E-11
     (0,0,2)       -3.00000E-10
 Nucleus-field energy     =     0.0000000160 hartrees
 Requested basis set is STO-3G
 There are 16 shells and 34 basis functions
 tim1(1): 
  4.930000000058499E-004
 tim1(2): 
  0.000000000000000E+000
 A cutoff of  1.0D-11 yielded    115 shell pairs
 There are       604 function pairs
 Smallest overlap matrix eigenvalue = 6.42E-01
 Guess MOs from SCF MO coefficient file
 Reading MOs from coefficient file
 Reading MOs from coefficient file
 A restricted hybrid HF-DFT SCF calculation will be
 performed using Pulay DIIS extrapolation
 Exchange:     0.2500 Hartree-Fock + 0.7500 PBE
 Correlation:  1.0000 PBE
 Using Euler-Maclaurin-Lebedev (75,302) quadrature formula
 SCF converges when DIIS error is below 1.0E-08
Geometry optimization detected.  Setting ReadMinima to 0
Setting SaveMinima to 0
 using 4 threads for integral computing 
 -------------------------------------------------------
 OpenMP BLAS3 based DFT computing Module                
 Release: version 1.0, May 2013, Q-Chem Inc. Pittsburgh 
 -------------------------------------------------------
 ---------------------------------------
  Cycle       Energy         DIIS Error
 ---------------------------------------
    1    -258.9690604108      3.43E-03
    2    -258.9170436182      1.06E-03
    3    -258.9149582350      3.59E-03
    4    -258.9168768613      1.56E-03
    5    -258.9173960400      4.95E-04
    6    -258.9174622060      1.47E-04
    7    -258.9174705216      4.23E-05
    8    -258.9174694857      8.46E-05
    9    -258.9174710419      9.46E-06
   10    -258.9174710423      9.72E-06
   11    -258.9174710640      4.45E-06
   12    -258.9174710702      1.37E-06
   13    -258.9174710704      9.00E-07
   14    -258.9174710707      7.73E-08
   15    -258.9174710707      2.80E-09 Convergence criterion met
 ---------------------------------------
 SCF time:  CPU 7.99 s  wall 2.00 s
 SCF   energy in the final basis set = -258.9174710707
 Total energy in the final basis set = -258.9174710707
 
 --------------------------------------------------------------
 
                    Orbital Energies (a.u.)
 --------------------------------------------------------------
 
 Alpha MOs
 -- Occupied --
-14.134 -14.134 -10.051 -10.051 -10.050 -10.050  -0.641  -0.640
 -0.517  -0.501  -0.488  -0.470  -0.226  -0.220  -0.210  -0.205
 -0.187  -0.136  -0.124  -0.120  -0.117
 -- Virtual --
 -0.049  -0.036  -0.017  -0.016  -0.001   0.010   0.044   0.047
  0.085   0.105   0.108   0.118   0.122
 --------------------------------------------------------------
 
          Ground-State Mulliken Net Atomic Charges

     Atom                 Charge (a.u.)
  ----------------------------------------
      1 C                     0.088327
      2 N                    -0.094524
      3 C                     0.088326
      4 C                     0.088332
      5 H                    -0.041064
      6 H                    -0.041067
      7 N                    -0.094522
      8 C                     0.088324
      9 H                    -0.041064
     10 H                    -0.041067
  ----------------------------------------
  Sum of atomic charges =    -0.000000

 -----------------------------------------------------------------
                    Cartesian Multipole Moments
 -----------------------------------------------------------------
    Charge (ESU x 10^10)
                -0.0000
    Dipole Moment (Debye)
         X      -0.0001      Y      -0.0000      Z       0.0000
       Tot       0.0001
    Quadrupole Moments (Debye-Ang)
        XX     -28.9056     XY       0.0004     YY     -36.9937
        XZ       0.0000     YZ      -0.0000     ZZ     -31.0404
    Octopole Moments (Debye-Ang^2)
       XXX      -0.0007    XXY      -0.0002    XYY       0.0003
       YYY      -0.0003    XXZ      -0.0001    XYZ       0.0000
       YYZ      -0.0001    XZZ      -0.0001    YZZ       0.0001
       ZZZ      -0.0002
    Hexadecapole Moments (Debye-Ang^3)
      XXXX    -663.6358   XXXY      -0.0021   XXYY    -221.0814
      XYYY       0.0055   YYYY    -752.5361   XXXZ      -0.0001
      XXYZ       0.0000   XYYZ       0.0000   YYYZ      -0.0004
      XXZZ    -109.0111   XYZZ       0.0015   YYZZ    -128.1480
      XZZZ      -0.0000   YZZZ      -0.0001   ZZZZ     -22.2751
 -----------------------------------------------------------------
 Calculating analytic gradient of the SCF energy
 Gradient of SCF Energy
            1           2           3           4           5           6
    1  -0.0063918  -0.0000098   0.0064044   0.0063992  -0.0943993  -0.0943927
    2  -0.0618822   0.0970117  -0.0618748   0.0618751   0.0399692  -0.0399836
    3   0.0000006  -0.0000002  -0.0000004  -0.0000006   0.0000001   0.0000009
            7           8           9          10
    1  -0.0000015  -0.0064007   0.0943993   0.0943930
    2  -0.0970091   0.0618811  -0.0399697   0.0399823
    3  -0.0000002   0.0000003  -0.0000001  -0.0000004
 Max gradient component =       9.701E-02
 RMS gradient           =       5.044E-02
 Gradient time:  CPU 1.15 s  wall 0.29 s
 Geometry Optimization Parameters
   NAtoms,    NIC,     NZ,  NCons,   NDum,   NFix, NCnnct, MaxDiis
       10      60       0       0       0       0       0       0

 Cartesian Hessian Update
 Hessian Updated using BFGS Update
**WARNING** Hereditary positive definiteness endangered


** GEOMETRY OPTIMIZATION IN DELOCALIZED INTERNAL COORDINATES **
   Searching for a Minimum

   Optimization Cycle:   6

                       Coordinates (Angstroms)
     ATOM                X               Y               Z
      1  C         1.8662451381    1.3344686988    0.0000096482
      2  N        -0.0001698632    2.6517015219    0.0000001535
      3  C        -1.8664321418    1.3342194492    0.0000008986
      4  C        -1.8662704695   -1.3344576655   -0.0000000122
      5  H        -3.4413599823    2.1197449820   -0.0000000772
      6  H        -3.4410983270   -2.1202182913    0.0000182208
      7  N         0.0001951108   -2.6517123326    0.0000004360
      8  C         1.8664446288   -1.3342286864   -0.0000003372
      9  H         3.4413528990   -2.1197610873    0.0000010290
     10  H         3.4410730072    2.1202334113    0.0000000416
   Point Group: c1    Number of degrees of freedom:    24


   Energy is   -258.917471071

 Hessian Updated using BFGS Update
**WARNING** Hereditary positive definiteness endangered

 24 Hessian modes will be used to form the next step
  Hessian Eigenvalues:
    -0.066094    0.002000    0.002000    0.002000    0.002000    0.002000
     0.002000    0.002000    0.019510    0.028179    0.029127    0.033561
     0.039916    0.039916    0.039917    0.041455    0.042449    0.156573
     0.160000    0.160000    0.160000    0.220000    0.227532    0.229225
**WARNING** Hessian does not have the Desired Local Structure

 Minimum Search - Taking Simple RFO Step
 Searching for Lamda that Minimizes Along All modes
 Value Taken    Lamda =  -0.31846385
 Calculated Step too Large.  Step scaled by  0.273844
 Step Taken.  Stepsize is  0.300000

                             Maximum     Tolerance    Cnvgd?
         Gradient           0.219707      0.000300      NO
         Displacement       0.220208      0.001200      NO
         Energy change     -0.085347      0.000001      NO


 New Cartesian Coordinates Obtained by Inverse Iteration

 Displacement from previous Coordinates is:  0.500971
 ----------------------------------------------------------------
             Standard Nuclear Orientation (Angstroms)
    I     Atom           X                Y                Z
 ----------------------------------------------------------------
    1      C       1.8014892188     1.3294278299     0.0000095381
    2      N      -0.0001678967     2.6340352282     0.0000001951
    3      C      -1.8016768136     1.3291868725     0.0000010740
    4      C      -1.8015163785    -1.3294165473    -0.0000000073
    5      H      -3.3278280665     2.1022594163    -0.0000000981
    6      H      -3.3275706544    -2.1027146255     0.0000178768
    7      N       0.0001973395    -2.6340482485     0.0000005141
    8      C       1.8016893339    -1.3291975290    -0.0000003862
    9      H       3.3278219176    -2.1022753050     0.0000012462
   10      H       3.3275419999     2.1027329083     0.0000000483
 ----------------------------------------------------------------
 Nuclear Repulsion Energy =   121.5355041080 hartrees
 There are       21 alpha and       21 beta electrons
 Applying Cartesian multipole field
    Component          Value
    ---------          -----
     (2,0,0)        1.00000E-11
     (0,2,0)        2.00000E-11
     (0,0,2)       -3.00000E-10
 Nucleus-field energy     =     0.0000000156 hartrees
 Requested basis set is STO-3G
 There are 16 shells and 34 basis functions
 tim1(1): 
  5.210000000062109E-004
 tim1(2): 
  0.000000000000000E+000
 A cutoff of  1.0D-11 yielded    119 shell pairs
 There are       608 function pairs
 Smallest overlap matrix eigenvalue = 6.26E-01
 Guess MOs from SCF MO coefficient file
 Reading MOs from coefficient file
 Reading MOs from coefficient file
 A restricted hybrid HF-DFT SCF calculation will be
 performed using Pulay DIIS extrapolation
 Exchange:     0.2500 Hartree-Fock + 0.7500 PBE
 Correlation:  1.0000 PBE
 Using Euler-Maclaurin-Lebedev (75,302) quadrature formula
 SCF converges when DIIS error is below 1.0E-08
Geometry optimization detected.  Setting ReadMinima to 0
Setting SaveMinima to 0
 using 4 threads for integral computing 
 -------------------------------------------------------
 OpenMP BLAS3 based DFT computing Module                
 Release: version 1.0, May 2013, Q-Chem Inc. Pittsburgh 
 -------------------------------------------------------
 ---------------------------------------
  Cycle       Energy         DIIS Error
 ---------------------------------------
    1    -259.0633866869      3.83E-03
    2    -259.0065019302      1.13E-03
    3    -259.0064838812      1.20E-03
    4    -259.0067524437      1.09E-03
    5    -259.0069310455      5.56E-04
    6    -259.0069981037      1.33E-04
    7    -259.0070039768      4.36E-05
    8    -259.0070035720      6.39E-05
    9    -259.0070044259      1.21E-05
   10    -259.0070044550      6.63E-06
   11    -259.0070044624      3.93E-06
   12    -259.0070044676      7.21E-07
   13    -259.0070044675      7.58E-07
   14    -259.0070044677      4.13E-08
   15    -259.0070044677      4.74E-09 Convergence criterion met
 ---------------------------------------
 SCF time:  CPU 8.58 s  wall 2.15 s
 SCF   energy in the final basis set = -259.0070044677
 Total energy in the final basis set = -259.0070044677
 
 --------------------------------------------------------------
 
                    Orbital Energies (a.u.)
 --------------------------------------------------------------
 
 Alpha MOs
 -- Occupied --
-14.137 -14.137 -10.050 -10.050 -10.050 -10.049  -0.646  -0.645
 -0.519  -0.499  -0.491  -0.469  -0.233  -0.225  -0.215  -0.212
 -0.192  -0.138  -0.128  -0.123  -0.118
 -- Virtual --
 -0.048  -0.034  -0.015  -0.012   0.004   0.021   0.058   0.058
  0.098   0.120   0.122   0.133   0.137
 --------------------------------------------------------------
 
          Ground-State Mulliken Net Atomic Charges

     Atom                 Charge (a.u.)
  ----------------------------------------
      1 C                     0.083894
      2 N                    -0.099991
      3 C                     0.083893
      4 C                     0.083900
      5 H                    -0.033898
      6 H                    -0.033901
      7 N                    -0.099988
      8 C                     0.083889
      9 H                    -0.033898
     10 H                    -0.033901
  ----------------------------------------
  Sum of atomic charges =     0.000000

 -----------------------------------------------------------------
                    Cartesian Multipole Moments
 -----------------------------------------------------------------
    Charge (ESU x 10^10)
                 0.0000
    Dipole Moment (Debye)
         X      -0.0001      Y      -0.0000      Z       0.0000
       Tot       0.0001
    Quadrupole Moments (Debye-Ang)
        XX     -27.8369     XY       0.0004     YY     -36.8849
        XZ       0.0000     YZ      -0.0000     ZZ     -31.0705
    Octopole Moments (Debye-Ang^2)
       XXX      -0.0005    XXY      -0.0002    XYY       0.0003
       YYY      -0.0003    XXZ      -0.0001    XYZ       0.0000
       YYZ      -0.0001    XZZ      -0.0002    YZZ       0.0001
       ZZZ      -0.0002
    Hexadecapole Moments (Debye-Ang^3)
      XXXX    -602.9937   XXXY      -0.0007   XXYY    -205.8143
      XYYY       0.0087   YYYY    -751.4967   XXXZ      -0.0001
      XXYZ      -0.0000   XYYZ       0.0000   YYYZ      -0.0004
      XXZZ    -102.3537   XYZZ       0.0019   YYZZ    -126.2298
      XZZZ      -0.0000   YZZZ      -0.0001   ZZZZ     -22.3382
 -----------------------------------------------------------------
 Calculating analytic gradient of the SCF energy
 Gradient of SCF Energy
            1           2           3           4           5           6
    1   0.0003099  -0.0000107  -0.0002963  -0.0003016  -0.0952069  -0.0952004
    2  -0.0686369   0.1077995  -0.0686301   0.0686288   0.0402182  -0.0402326
    3   0.0000007  -0.0000002  -0.0000004  -0.0000006   0.0000001   0.0000009
            7           8           9          10
    1  -0.0000021   0.0003007   0.0952067   0.0952007
    2  -0.1077967   0.0686368  -0.0402187   0.0402317
    3  -0.0000002   0.0000003  -0.0000001  -0.0000004
 Max gradient component =       1.078E-01
 RMS gradient           =       5.317E-02
 Gradient time:  CPU 1.13 s  wall 0.28 s
 Geometry Optimization Parameters
   NAtoms,    NIC,     NZ,  NCons,   NDum,   NFix, NCnnct, MaxDiis
       10      60       0       0       0       0       0       0

 Cartesian Hessian Update
 Hessian Updated using BFGS Update
**WARNING** Hereditary positive definiteness endangered


** GEOMETRY OPTIMIZATION IN DELOCALIZED INTERNAL COORDINATES **
   Searching for a Minimum

   Optimization Cycle:   7

                       Coordinates (Angstroms)
     ATOM                X               Y               Z
      1  C         1.8014892188    1.3294278299    0.0000095381
      2  N        -0.0001678967    2.6340352282    0.0000001951
      3  C        -1.8016768136    1.3291868725    0.0000010740
      4  C        -1.8015163785   -1.3294165473   -0.0000000073
      5  H        -3.3278280665    2.1022594163   -0.0000000981
      6  H        -3.3275706544   -2.1027146255    0.0000178768
      7  N         0.0001973395   -2.6340482485    0.0000005141
      8  C         1.8016893339   -1.3291975290   -0.0000003862
      9  H         3.3278219176   -2.1022753050    0.0000012462
     10  H         3.3275419999    2.1027329083    0.0000000483
   Point Group: c1    Number of degrees of freedom:    24


   Energy is   -259.007004468

 Hessian Updated using BFGS Update
**WARNING** Hereditary positive definiteness endangered

 23 Hessian modes will be used to form the next step
  Hessian Eigenvalues:
    -0.069517    0.002000    0.002000    0.002000    0.002000    0.002000
     0.002000    0.018419    0.027437    0.029127    0.033561    0.039916
     0.039916    0.039917    0.041455    0.042449    0.156603    0.160000
     0.160000    0.160000    0.220000    0.227532    0.229281
**WARNING** Hessian does not have the Desired Local Structure

 Minimum Search - Taking Simple RFO Step
 Searching for Lamda that Minimizes Along All modes
 Value Taken    Lamda =  -0.33322662
 Calculated Step too Large.  Step scaled by  0.274414
 Step Taken.  Stepsize is  0.300000

                             Maximum     Tolerance    Cnvgd?
         Gradient           0.229580      0.000300      NO
         Displacement       0.219535      0.001200      NO
         Energy change     -0.089533      0.000001      NO


 New Cartesian Coordinates Obtained by Inverse Iteration

 Displacement from previous Coordinates is:  0.498808
 ----------------------------------------------------------------
             Standard Nuclear Orientation (Angstroms)
    I     Atom           X                Y                Z
 ----------------------------------------------------------------
    1      C       1.7355396201     1.3247716786     0.0000094152
    2      N      -0.0001657899     2.6141498283     0.0000002454
    3      C      -1.7357283778     1.3245397672     0.0000012434
    4      C      -1.7355688825    -1.3247602591     0.0000000096
    5      H      -3.2156405153     2.0860166463    -0.0000001248
    6      H      -3.2153867641    -2.0864538886     0.0000175361
    7      N       0.0001998741    -2.6141649097     0.0000005914
    8      C       1.7357404707    -1.3245514693    -0.0000004276
    9      H       3.2156353411    -2.0860310607     0.0000014542
   10      H       3.2153550236     2.0864736669     0.0000000582
 ----------------------------------------------------------------
 Nuclear Repulsion Energy =   124.2113494575 hartrees
 There are       21 alpha and       21 beta electrons
 Applying Cartesian multipole field
    Component          Value
    ---------          -----
     (2,0,0)        1.00000E-11
     (0,2,0)        2.00000E-11
     (0,0,2)       -3.00000E-10
 Nucleus-field energy     =     0.0000000151 hartrees
 Requested basis set is STO-3G
 There are 16 shells and 34 basis functions
 tim1(1): 
  5.060000000014497E-004
 tim1(2): 
  0.000000000000000E+000
 A cutoff of  1.0D-11 yielded    119 shell pairs
 There are       608 function pairs
 Smallest overlap matrix eigenvalue = 6.09E-01
 Guess MOs from SCF MO coefficient file
 Reading MOs from coefficient file
 Reading MOs from coefficient file
 A restricted hybrid HF-DFT SCF calculation will be
 performed using Pulay DIIS extrapolation
 Exchange:     0.2500 Hartree-Fock + 0.7500 PBE
 Correlation:  1.0000 PBE
 Using Euler-Maclaurin-Lebedev (75,302) quadrature formula
 SCF converges when DIIS error is below 1.0E-08
Geometry optimization detected.  Setting ReadMinima to 0
Setting SaveMinima to 0
 using 4 threads for integral computing 
 -------------------------------------------------------
 OpenMP BLAS3 based DFT computing Module                
 Release: version 1.0, May 2013, Q-Chem Inc. Pittsburgh 
 -------------------------------------------------------
 ---------------------------------------
  Cycle       Energy         DIIS Error
 ---------------------------------------
    1    -259.1624465481      4.30E-03
    2    -259.1000493377      1.46E-03
    3    -259.0979558754      3.55E-03
    4    -259.0992043427      2.94E-03
    5    -259.1007561870      3.14E-04
    6    -259.1007845899      1.24E-04
    7    -259.1007889493      2.88E-05
    8    -259.1007884856      5.59E-05
    9    -259.1007891367      1.30E-05
   10    -259.1007891753      4.26E-06
   11    -259.1007891762      3.59E-06
   12    -259.1007891803      8.70E-07
   13    -259.1007891804      6.19E-07
   14    -259.1007891805      2.49E-08
   15    -259.1007891805      1.32E-09 Convergence criterion met
 ---------------------------------------
 SCF time:  CPU 7.84 s  wall 1.96 s
 SCF   energy in the final basis set = -259.1007891805
 Total energy in the final basis set = -259.1007891805
 
 --------------------------------------------------------------
 
                    Orbital Energies (a.u.)
 --------------------------------------------------------------
 
 Alpha MOs
 -- Occupied --
-14.140 -14.140 -10.049 -10.049 -10.049 -10.049  -0.653  -0.651
 -0.521  -0.497  -0.494  -0.467  -0.241  -0.230  -0.221  -0.218
 -0.198  -0.140  -0.132  -0.127  -0.120
 -- Virtual --
 -0.047  -0.033  -0.014  -0.006   0.009   0.033   0.069   0.074
  0.113   0.135   0.137   0.149   0.153
 --------------------------------------------------------------
 
          Ground-State Mulliken Net Atomic Charges

     Atom                 Charge (a.u.)
  ----------------------------------------
      1 C                     0.079568
      2 N                    -0.106258
      3 C                     0.079568
      4 C                     0.079577
      5 H                    -0.026439
      6 H                    -0.026443
      7 N                    -0.106255
      8 C                     0.079562
      9 H                    -0.026438
     10 H                    -0.026442
  ----------------------------------------
  Sum of atomic charges =    -0.000000

 -----------------------------------------------------------------
                    Cartesian Multipole Moments
 -----------------------------------------------------------------
    Charge (ESU x 10^10)
                -0.0000
    Dipole Moment (Debye)
         X      -0.0001      Y      -0.0000      Z       0.0000
       Tot       0.0001
    Quadrupole Moments (Debye-Ang)
        XX     -26.9516     XY       0.0005     YY     -36.8193
        XZ       0.0000     YZ      -0.0000     ZZ     -31.0939
    Octopole Moments (Debye-Ang^2)
       XXX      -0.0003    XXY      -0.0001    XYY       0.0003
       YYY      -0.0003    XXZ      -0.0001    XYZ       0.0000
       YYZ      -0.0001    XZZ      -0.0002    YZZ       0.0001
       ZZZ      -0.0002
    Hexadecapole Moments (Debye-Ang^3)
      XXXX    -547.8705   XXXY       0.0005   XXYY    -191.7223
      XYYY       0.0116   YYYY    -750.4645   XXXZ      -0.0001
      XXYZ      -0.0000   XYYZ       0.0000   YYYZ      -0.0003
      XXZZ     -95.8336   XYZZ       0.0023   YYZZ    -124.2724
      XZZZ      -0.0000   YZZZ      -0.0001   ZZZZ     -22.3934
 -----------------------------------------------------------------
 Calculating analytic gradient of the SCF energy
 Gradient of SCF Energy
            1           2           3           4           5           6
    1   0.0074743  -0.0000117  -0.0074599  -0.0074653  -0.0955346  -0.0955282
    2  -0.0754753   0.1193776  -0.0754692   0.0754662   0.0402805  -0.0402950
    3   0.0000007  -0.0000003  -0.0000004  -0.0000006   0.0000001   0.0000009
            7           8           9          10
    1  -0.0000029   0.0074651   0.0955344   0.0955287
    2  -0.1193747   0.0754763  -0.0402811   0.0402945
    3  -0.0000003   0.0000003  -0.0000001  -0.0000004
 Max gradient component =       1.194E-01
 RMS gradient           =       5.613E-02
 Gradient time:  CPU 1.11 s  wall 0.28 s
 Geometry Optimization Parameters
   NAtoms,    NIC,     NZ,  NCons,   NDum,   NFix, NCnnct, MaxDiis
       10      60       0       0       0       0       0       0

 Cartesian Hessian Update
 Hessian Updated using BFGS Update
**WARNING** Hereditary positive definiteness endangered


** GEOMETRY OPTIMIZATION IN DELOCALIZED INTERNAL COORDINATES **
   Searching for a Minimum

   Optimization Cycle:   8

                       Coordinates (Angstroms)
     ATOM                X               Y               Z
      1  C         1.7355396201    1.3247716786    0.0000094152
      2  N        -0.0001657899    2.6141498283    0.0000002454
      3  C        -1.7357283778    1.3245397672    0.0000012434
      4  C        -1.7355688825   -1.3247602591    0.0000000096
      5  H        -3.2156405153    2.0860166463   -0.0000001248
      6  H        -3.2153867641   -2.0864538886    0.0000175361
      7  N         0.0001998741   -2.6141649097    0.0000005914
      8  C         1.7357404707   -1.3245514693   -0.0000004276
      9  H         3.2156353411   -2.0860310607    0.0000014542
     10  H         3.2153550236    2.0864736669    0.0000000582
   Point Group: c1    Number of degrees of freedom:    24


   Energy is   -259.100789181

 Hessian Updated using BFGS Update
**WARNING** Hereditary positive definiteness endangered

 23 Hessian modes will be used to form the next step
  Hessian Eigenvalues:
    -0.070899    0.002000    0.002000    0.002000    0.002000    0.002000
     0.002000    0.017422    0.026915    0.029127    0.033561    0.039916
     0.039916    0.039917    0.041455    0.042449    0.156651    0.160000
     0.160000    0.160000    0.220000    0.227532    0.229355
**WARNING** Hessian does not have the Desired Local Structure

 Minimum Search - Taking Simple RFO Step
 Searching for Lamda that Minimizes Along All modes
 Value Taken    Lamda =  -0.34735500
 Calculated Step too Large.  Step scaled by  0.275557
 Step Taken.  Stepsize is  0.300000

                             Maximum     Tolerance    Cnvgd?
         Gradient           0.239566      0.000300      NO
         Displacement       0.219250      0.001200      NO
         Energy change     -0.093785      0.000001      NO


 New Cartesian Coordinates Obtained by Inverse Iteration

 Displacement from previous Coordinates is:  0.494182
 ----------------------------------------------------------------
             Standard Nuclear Orientation (Angstroms)
    I     Atom           X                Y                Z
 ----------------------------------------------------------------
    1      C       1.6691175285     1.3203950884     0.0000092815
    2      N      -0.0001634423     2.5915403519     0.0000003026
[...]
 C         -0.008 -0.014 -0.000    0.025  0.123  0.000    0.086 -0.068  0.000
 N          0.098 -0.001  0.000   -0.092 -0.001  0.000    0.015  0.072 -0.000
 C         -0.005  0.014  0.000    0.025 -0.120 -0.001   -0.112 -0.084 -0.000
 C          0.005  0.022  0.000    0.024  0.119  0.001    0.112 -0.091  0.002
 H         -0.250 -0.408 -0.002    0.321  0.353  0.001    0.197  0.463  0.002
 H          0.263 -0.419  0.006    0.304 -0.330  0.006   -0.200  0.463 -0.004
 N         -0.101 -0.001 -0.000   -0.085  0.001  0.000   -0.016  0.074 -0.001
 C          0.008 -0.022 -0.000    0.024 -0.122 -0.001   -0.087 -0.075  0.001
 H          0.273  0.432 -0.001    0.322  0.356 -0.004    0.191  0.416 -0.001
 H         -0.261  0.420 -0.003    0.341 -0.385  0.001   -0.186  0.413 -0.001
 TransDip   0.006  0.000  0.000    0.218 -0.000  0.001    0.000  0.163  0.001

 Mode:                19                     20                     21
 Frequency:      1619.15                1697.14                3467.93
 Force Cnst:      8.8830                 8.3377                 7.7408
 Red. Mass:       5.7509                 4.9132                 1.0924
 IR Active:          YES                    YES                    YES
 IR Intens:        0.294                  0.043                  5.388
 Raman Active:       YES                    YES                    YES
               X      Y      Z        X      Y      Z        X      Y      Z
 C         -0.234  0.151 -0.001   -0.070  0.274 -0.000   -0.067 -0.039  0.001
 N          0.274 -0.015  0.002    0.005 -0.118  0.001    0.001 -0.000  0.000
 C         -0.194 -0.125  0.001    0.064  0.284  0.002    0.006 -0.003 -0.000
 C          0.191 -0.117  0.003    0.060 -0.281  0.001   -0.006 -0.003  0.000
 H          0.045  0.303 -0.001   -0.306 -0.287 -0.000   -0.054  0.032  0.000
 H         -0.036  0.293  0.004   -0.295  0.266 -0.006    0.058  0.033 -0.001
 N         -0.268 -0.016 -0.002    0.002  0.114 -0.002   -0.000  0.000  0.000
 C          0.231  0.152 -0.003   -0.062 -0.269 -0.000    0.036 -0.018 -0.001
 H         -0.101 -0.444  0.004    0.283  0.262 -0.005   -0.407  0.234  0.006
 H          0.097 -0.444 -0.005    0.292 -0.286  0.001    0.755  0.439 -0.010
 TransDip  -0.000 -0.017 -0.000   -0.006 -0.002 -0.000    0.023  0.071  0.002

 Mode:                22                     23                     24
 Frequency:      3479.11                3488.06                3503.64
 Force Cnst:      7.7908                 7.8756                 7.9573
 Red. Mass:       1.0924                 1.0987                 1.1002
 IR Active:          YES                    YES                    YES
 IR Intens:        5.916                  7.391                  4.929
 Raman Active:       YES                    YES                    YES
               X      Y      Z        X      Y      Z        X      Y      Z
 C         -0.010 -0.008  0.000   -0.033 -0.025  0.000    0.009  0.006 -0.000
 N          0.001  0.000 -0.000    0.001 -0.000  0.000    0.001  0.000 -0.000
 C         -0.069  0.041  0.001    0.008 -0.004 -0.000   -0.030  0.023  0.000
 C          0.028  0.013 -0.000   -0.015 -0.009  0.000   -0.069 -0.044  0.000
 H          0.786 -0.457 -0.006   -0.079  0.046  0.001    0.334 -0.198 -0.003
 H         -0.314 -0.180  0.003    0.183  0.105 -0.002    0.780  0.455 -0.007
 N          0.000 -0.000  0.000    0.002  0.000 -0.000    0.001 -0.000  0.000
 C         -0.009  0.006  0.000   -0.066  0.043  0.001    0.010 -0.007 -0.000
 H          0.091 -0.053 -0.001    0.746 -0.436 -0.011   -0.104  0.062  0.002
 H          0.131  0.076 -0.002    0.378  0.223 -0.005   -0.091 -0.055  0.001
 TransDip   0.048 -0.061 -0.001    0.087 -0.006 -0.000    0.066  0.027  0.001

 STANDARD THERMODYNAMIC QUANTITIES AT   298.15 K  AND     1.00 ATM

   This Molecule has  0 Imaginary Frequencies
   Zero point vibrational energy:       50.572 kcal/mol

   Atom    1 Element C  Has Mass   12.00000
   Atom    2 Element N  Has Mass   14.00307
   Atom    3 Element C  Has Mass   12.00000
   Atom    4 Element C  Has Mass   12.00000
   Atom    5 Element H  Has Mass    1.00783
   Atom    6 Element H  Has Mass    1.00783
   Atom    7 Element N  Has Mass   14.00307
   Atom    8 Element C  Has Mass   12.00000
   Atom    9 Element H  Has Mass    1.00783
   Atom   10 Element H  Has Mass    1.00783
   Molecular Mass:    80.037460 amu
   Principal axes and moments of inertia in amu*Bohr^2:
                             1           2           3
    Eigenvalues --      288.32415   324.29857   612.58645
          X               0.00086     0.99999    -0.00486
          Y               1.00000    -0.00085     0.00238
          Z              -0.00238     0.00486     0.99999
   Rotational Symmetry Number is   1
   The Molecule is an Asymmetric Top
   Translational Enthalpy:        0.889 kcal/mol
   Rotational Enthalpy:           0.889 kcal/mol
   Vibrational Enthalpy:         51.403 kcal/mol
   gas constant (RT):             0.592 kcal/mol
   Translational Entropy:        39.054  cal/mol.K
   Rotational Entropy:           25.552  cal/mol.K
   Vibrational Entropy:           3.835  cal/mol.K

   Total Enthalpy:               53.773 kcal/mol
   Total Entropy:                68.441  cal/mol.K
Archival summary:
1\1\theochem\FREQ\ProcedureUnspecified\STO-3G\244\ehrmaier\WedOct1616:48:232019WedOct1616:48:232019\0\\#,FREQ,ProcedureUnspecified,STO-3G,\\0,1\N\C,1,1.37784\H,2,1.10133,1,115.839\C,1,1.38246,2,112.158,3,-179.213,0\H,4,1.10019,1,115.917,2,-178.779,0\C,4,1.40213,1,123.946,2,1.26605,0\H,6,1.09836,4,120.116,1,-179.494,0\N,6,1.38406,4,123.915,1,-2.06849,0\C,8,1.38022,6,112.059,4,2.33534,0\H,9,1.10011,8,115.889,6,177.838,0\\\@

 Total job time:  158.76s(wall), 169.06s(cpu) 
 Wed Oct 16 16:48:23 2019

======= MOLDEN-FORMATTED INPUT FILE FOLLOWS =======
[Molden Format]
[Atoms] (Angs)
  C      1    6      1.14485646      0.70294302      0.01171317
  N      2    7      0.00183188      1.47215580     -0.00381187
  C      3    6     -1.14561384      0.70107529     -0.00269281
  C      4    6     -1.14676415     -0.70101801     -0.01322582
  H      5    1     -2.09663170      1.25416105      0.00641380
  H      6    1     -2.09720807     -1.25142522     -0.00324142
  N      7    7      0.00067398     -1.47444609      0.01550391
  C      8    6      1.14565861     -0.70381343      0.00357167
  H      9    1      2.09662556     -1.25667865     -0.01228987
  H     10    1      2.09655128      1.25703623     -0.00191078
[FREQ]
    352.85864433
    407.44227824
    628.94852973
    713.74898031
    785.61561383
    820.98916528
    966.49567783
   1017.31740411
   1036.11587186
   1047.67857251
   1067.33118429
   1136.07741990
   1185.83378692
   1186.82986621
   1302.26155116
   1402.46200592
   1484.30642703
   1578.11921574
   1619.14582772
   1697.14363377
   3467.93019380
   3479.10664884
   3488.05542167
   3503.63698178
[FR-COORD]
  C      2.16346517      1.32836979      0.02213469
  N      0.00346174      2.78197128     -0.00720338
  C     -2.16489641      1.32484030     -0.00508868
  C     -2.16707017     -1.32473205     -0.02499317
  H     -3.96205970      2.37002090      0.01212033
  H     -3.96314889     -2.36485093     -0.00612539
  N      0.00127364     -2.78629929      0.02929815
  C      2.16498100     -1.33001463      0.00674949
  H      3.96204809     -2.37477848     -0.02322449
  H      3.96190773      2.37545421     -0.00361085
[FR-NORM-COORD]
vibration 1
    -0.00091999     -0.00127054      0.18020690
     0.00019320     -0.00003912     -0.00114894
     0.00062646      0.00138421     -0.17985227
    -0.00138614     -0.00127712      0.18021377
    -0.00064018      0.00292690     -0.46372010
    -0.00093992      0.00269994      0.47133896
     0.00128912     -0.00037099     -0.00137474
     0.00024599      0.00078918     -0.17820247
    -0.00285783      0.00247086     -0.46603288
     0.00091265      0.00205700      0.46530805
vibration 2
     0.00276403     -0.00351309     -0.21959577
    -0.00412445      0.00109022      0.42541334
     0.00215260      0.00007907     -0.22108335
     0.00570238     -0.00336520     -0.21623902
    -0.00137682     -0.00454166     -0.34226695
     0.00283943     -0.00095666     -0.33391209
    -0.00434257      0.00524496      0.42377325
    -0.00038597      0.00033593     -0.22183961
    -0.00499401     -0.00484401     -0.33456310
    -0.00066805     -0.00072357     -0.32492593
vibration 3
    -0.23471718      0.03561732     -0.00199951
     0.00066965      0.45061355     -0.00184205
     0.23423505      0.03404943      0.00023568
     0.23438335     -0.03484556      0.00183136
     0.04556753     -0.30051050      0.00183142
     0.04446745      0.30291507     -0.00246434
     0.00027209     -0.44986891      0.00282796
    -0.23484595     -0.03603548      0.00027167
    -0.04549513      0.30006867     -0.00998213
    -0.04637595     -0.29836136     -0.00712200
vibration 4
    -0.24468211     -0.25167020     -0.00518488
    -0.12917812     -0.00042762      0.00173306
    -0.24448527      0.25248796     -0.00314547
     0.24369881      0.25224673      0.00581296
    -0.30860625      0.15373756     -0.00946194
     0.30994750      0.14918513     -0.00318424
     0.13079653     -0.00048116     -0.00190241
     0.24338289     -0.25155708      0.00345919
     0.30790954     -0.15208461      0.00603252
    -0.30690369     -0.15615967     -0.00224708
vibration 5
    -0.00438371     -0.00308972      0.24992967
     0.00018156     -0.00119414     -0.25063364
    -0.00262618      0.00069547      0.24798532
     0.00659660      0.00253196     -0.24522348
    -0.00350248     -0.00164284      0.37926178
     0.00635363     -0.00042831     -0.41478976
    -0.00035137      0.00349935      0.25113603
     0.00065326     -0.00223291     -0.24758664
    -0.00079288     -0.00196951     -0.41116650
    -0.00255625     -0.00304154      0.37893160
vibration 6
    -0.00242021     -0.00090915     -0.04457182
     0.00038925      0.00182390      0.01104475
     0.00092727     -0.00084890     -0.04766849
    -0.00123881     -0.00071817     -0.05465712
     0.00278479     -0.00525423      0.50218306
    -0.00018251      0.00656331      0.51837165
     0.00068370      0.00151712      0.01438933
     0.00039229     -0.00153713     -0.04981745
     0.00786246     -0.00227931      0.49011257
     0.00248288      0.00233514      0.47818337
vibration 7
    -0.00182413      0.00137718     -0.07248577
     0.00258471     -0.00060944     -0.00022706
    -0.00002283     -0.00192267      0.06877117
    -0.00064623      0.00181670      0.08060251
    -0.00049667      0.00411286     -0.45251512
    -0.00056377     -0.00723203     -0.50346707
     0.00228059     -0.00012430     -0.00026675
    -0.00383469     -0.00040457     -0.08150112
     0.00472965     -0.00078357      0.52524103
     0.00407569      0.00377862      0.49253064
vibration 8
     0.00075136      0.00130320     -0.05916285
     0.00062842     -0.00315447     -0.00416018
    -0.00124285      0.00106655     -0.08030936
     0.00192789      0.00156677      0.07612746
     0.00249172     -0.00141781      0.55422926
     0.00037088     -0.00452347     -0.51827839
    -0.00085518     -0.00196916      0.00444634
    -0.00108184      0.00177435      0.05937405
    -0.00817793      0.00260245     -0.44615173
     0.00424437      0.00653007      0.45350300
vibration 9
    -0.01110796     -0.01402565     -0.11670668
    -0.00178058      0.02575091     -0.00091377
     0.01271266     -0.01294670      0.10226228
    -0.00903064     -0.01374791     -0.09370582
     0.00042987     -0.02759205     -0.45400845
    -0.00023918     -0.02261111      0.40001762
    -0.00243203      0.02682981      0.00042255
     0.01260062     -0.01210432      0.10901065
    -0.00531877     -0.02824413     -0.51442921
     0.00204559     -0.02315373      0.56500030
vibration 10
    -0.12553772     -0.15598803      0.03327600
     0.00345399      0.30646542     -0.00058536
     0.12193045     -0.15578712     -0.02973223
    -0.10703158     -0.14788093      0.03258831
    -0.00035554     -0.38512166      0.13561457
     0.01535758     -0.37478098     -0.14700650
    -0.00060771      0.32255362     -0.00388998
     0.10715711     -0.14729859     -0.02732275
    -0.00980817     -0.36541513      0.12419482
    -0.00328450     -0.38757783     -0.15551205
vibration 11
    -0.23153690     -0.14006637     -0.00103558
    -0.02717064     -0.25489136      0.00051963
     0.26272503     -0.10865055      0.00069706
     0.27821805      0.11933854      0.00333998
     0.17486615     -0.31965247     -0.00138911
     0.18425392      0.34311514      0.01463340
    -0.02663668      0.23301917     -0.00474709
    -0.24727579      0.15108520      0.00173874
    -0.18076274      0.32942806      0.00004441
    -0.17051574     -0.30745070     -0.01099177
vibration 12
    -0.12487977     -0.03770815     -0.00174204
     0.19006239     -0.00836579      0.00205455
    -0.11376225      0.02361790     -0.00069297
    -0.11241166     -0.02200507     -0.00502374
     0.11018357      0.42814198      0.00110012
     0.11661148     -0.43617058      0.01201540
     0.19215853      0.00714945      0.00205980
    -0.13212760      0.03807164      0.00328848
     0.10403144      0.47036869     -0.01832967
     0.11161839     -0.46897149     -0.00229742
vibration 13
    -0.11174378     -0.08587401      0.00051728
    -0.05569514     -0.03598307     -0.00056633
     0.16460580      0.08381765      0.00005812
    -0.12298213     -0.08467481      0.00142759
     0.38239353      0.45569806      0.00679049
    -0.26635493      0.13122444     -0.02021537
    -0.05110695     -0.04434333      0.00113674
     0.17249819      0.08338296     -0.00179187
     0.39259116      0.45777972      0.00771045
    -0.24368419      0.11124148     -0.00472488
vibration 14
    -0.15489079      0.16079306      0.00070201
     0.10531138     -0.03785890      0.00179835
     0.05207744     -0.17222676     -0.00212818
    -0.13794941      0.17263350     -0.00172944
     0.08978359     -0.14803719     -0.00014132
    -0.34254289      0.54397290     -0.00414304
     0.11422448     -0.01529987      0.00259775
     0.02813600     -0.16316243      0.00095756
     0.07202582     -0.12166273     -0.01821360
    -0.33786090      0.48769826     -0.01241095
vibration 15
    -0.04936877      0.04693361      0.00044929
    -0.00001217     -0.01223641      0.00032608
     0.04833303      0.04403525      0.00005251
     0.04318635     -0.04321934     -0.00050114
     0.27548372      0.43429432      0.00270305
     0.26479878     -0.42604970      0.00649756
     0.00058773      0.00987990     -0.00076120
    -0.04497113     -0.04638038     -0.00010294
    -0.25259803     -0.40467693      0.00128798
    -0.26209819      0.41287240     -0.00322512
vibration 16
    -0.00784709     -0.01439188     -0.00041639
     0.09800784     -0.00109291      0.00004639
    -0.00471023      0.01421234      0.00018332
     0.00546760      0.02201521      0.00044275
    -0.25031747     -0.40774147     -0.00208113
     0.26263617     -0.41944592      0.00586921
    -0.10061565     -0.00086369     -0.00002256
     0.00809260     -0.02158562     -0.00021215
     0.27270669      0.43156820     -0.00128098
    -0.26073278      0.41982755     -0.00280890
vibration 17
     0.02484908      0.12270666      0.00039669
    -0.09198719     -0.00148663      0.00009683
     0.02508808     -0.11952795     -0.00089009
     0.02405471      0.11873781      0.00052842
     0.32073410      0.35326073      0.00090430
     0.30418228     -0.32958462      0.00574084
    -0.08488771      0.00147258      0.00007896
     0.02422886     -0.12151960     -0.00057162
     0.32249590      0.35629924     -0.00396800
     0.34064515     -0.38450617      0.00126967
vibration 18
     0.08639317     -0.06821791      0.00030361
     0.01548668      0.07199676     -0.00034245
    -0.11204603     -0.08442244     -0.00013196
     0.11247670     -0.09052362      0.00152732
     0.19723899      0.46309025      0.00244289
    -0.19999582      0.46295040     -0.00377279
    -0.01568282      0.07405037     -0.00128480
    -0.08685170     -0.07473239      0.00050162
     0.19134188      0.41648990     -0.00128277
    -0.18552806      0.41336900     -0.00097974
vibration 19
    -0.23442789      0.15113540     -0.00148096
     0.27359442     -0.01516908      0.00212887
    -0.19428120     -0.12477299      0.00069222
     0.19052540     -0.11728699      0.00310090
     0.04460240      0.30338075     -0.00145171
    -0.03616202      0.29278165      0.00448113
    -0.26780447     -0.01602219     -0.00192388
     0.23103816      0.15186551     -0.00273477
    -0.10078224     -0.44406176      0.00406657
     0.09697494     -0.44433023     -0.00491230
vibration 20
    -0.06974370      0.27446161     -0.00006084
     0.00542292     -0.11819548      0.00113359
     0.06434100      0.28360063      0.00153011
     0.05988284     -0.28067104      0.00067482
    -0.30568567     -0.28683095     -0.00026722
    -0.29520982      0.26605262     -0.00623949
     0.00249762      0.11426577     -0.00202016
    -0.06151542     -0.26901762     -0.00023780
     0.28289725      0.26217005     -0.00463074
     0.29171546     -0.28649356      0.00075792
vibration 21
    -0.06696227     -0.03877235      0.00079230
     0.00100602     -0.00012265      0.00000488
     0.00593445     -0.00268628     -0.00004108
    -0.00576099     -0.00271348      0.00004955
    -0.05367229      0.03153784      0.00042206
     0.05799516      0.03321048     -0.00064862
    -0.00014963      0.00007462      0.00004559
     0.03618564     -0.01775635     -0.00050203
    -0.40714349      0.23437718      0.00587655
     0.75530657      0.43890957     -0.00990820
vibration 22
    -0.01032775     -0.00752355      0.00012840
     0.00143015      0.00005686     -0.00003033
    -0.06930467      0.04106466      0.00055213
     0.02794974      0.01250425     -0.00026174
     0.78614483     -0.45730752     -0.00629817
    -0.31414189     -0.17996459      0.00293196
     0.00023509     -0.00005954      0.00000089
    -0.00854508      0.00556413      0.00014376
     0.09125792     -0.05320529     -0.00129773
     0.13071997      0.07601246     -0.00162518
vibration 23
    -0.03346248     -0.02488639      0.00031053
     0.00113707     -0.00027264      0.00004310
     0.00754768     -0.00357447     -0.00002846
    -0.01499341     -0.00913511      0.00016122
    -0.07861981      0.04634330      0.00067817
     0.18258452      0.10465275     -0.00158277
     0.00180597      0.00027876     -0.00003769
    -0.06565106      0.04277930      0.00097048
     0.74600122     -0.43578313     -0.01098505
     0.37791913      0.22298542     -0.00501890
vibration 24
     0.00856342      0.00591911     -0.00004103
     0.00085396      0.00032788     -0.00000905
    -0.02956659      0.02288811      0.00028534
    -0.06902713     -0.04449151      0.00045324
     0.33378046     -0.19766913     -0.00282337
     0.77995511      0.45461891     -0.00733890
     0.00130031     -0.00032389      0.00005346
     0.01039269     -0.00653499     -0.00013137
    -0.10424682      0.06220163      0.00155634
    -0.09119391     -0.05464705      0.00124755
[INT]
    0.002123
   12.879345
    0.000770
    0.000587
    0.006061
   10.851949
    0.008420
    0.004689
    0.111169
    7.303136
    0.027936
    3.504297
    2.296677
    5.613628
    0.012115
    0.038057
   46.481495
   26.027934
    0.294038
    0.042519
    5.387549
    5.916121
    7.390916
    4.928711

======= END OF MOLDEN-FORMATTED INPUT FILE =======


        *************************************************************
        *                                                           *
        *  Thank you very much for using Q-Chem.  Have a nice day.  *
        *                                                           *
        *************************************************************


