                  Welcome to Q-Chem
     A Quantum Leap Into The Future Of Chemistry


 Q-Chem 4.3, Q-Chem, Inc., Pleasanton, CA (2015)

 Y. Shao,  Z. Gan,  E. Epifanovsky,  A. T. B. Gilbert,  M. Wormit,  
 J. Kussmann,  A. W. Lange,  A. Behn,  J. Deng,  X. Feng,  D. Ghosh,  
 M. Goldey,  P. R. Horn,  L. D. Jacobson,  I. Kaliman,  R. Z. Khaliullin,  
 T. Kus,  A. Landau,  J. Liu,  E. I. Proynov,  Y. M. Rhee,  R. M. Richard,  
 M. A. Rohrdanz,  R. P. Steele,  E. J. Sundstrom,  H. L. Woodcock III,  
 P. M. Zimmerman,  D. Zuev,  B. Albrecht,  E. Alguire,  B. Austin,  
 S. A. Baeppler,  G. J. O. Beran,  Y. A. Bernard,  E. Berquist,  
 K. Brandhorst,  K. B. Bravaya,  S. T. Brown,  D. Casanova,  C.-M. Chang,  
 Y. Chen,  S. H. Chien,  K. D. Closser,  D. L. Crittenden,  M. Diedenhofen,  
 R. A. DiStasio Jr.,  H. Do,  A. D. Dutoi,  R. G. Edgar,  P.-T. Fang,  
 S. Fatehi,  Q. Feng,  L. Fusti-Molnar,  A. Ghysels,  
 A. Golubeva-Zadorozhnaya,  J. Gomes,  A. Gunina,  M. W. D. Hanson-Heine,  
 P. H. P. Harbach,  A. W. Hauser,  E. G. Hohenstein,  Z. C. Holden,  K. Hui,  
 T.-C. Jagau,  H. Ji,  B. Kaduk,  K. Khistyaev,  Jaehoon Kim,  Jihan Kim,  
 R. A. King,  P. Klunzinger,  D. Kosenkov,  T. Kowalczyk,  C. M. Krauter,  
 K. U. Lao,  A. Laurent,  K. V. Lawler,  S. Lehtola,  S. V. Levchenko,  
 C. Y. Lin,  Y.-S. Lin,  F. Liu,  E. Livshits,  R. C. Lochan,  A. Luenser,  
 P. Manohar,  S. F. Manzer,  S.-P. Mao,  N. Mardirossian,  A. V. Marenich,  
 L. A. Martinez-Martinez,  S. A. Maurer,  N. J. Mayhall,  K. Nanda,  
 C. M. Oana,  R. Olivares-Amaya,  D. P. O'Neill,  J. A. Parkhill,  
 T. M. Perrine,  R. Peverati,  P. A. Pieniazek,  F. Plasser,  A. Prociuk,  
 D. R. Rehn,  E. Rosta,  N. J. Russ,  N. Sergueev,  S. M. Sharada,  
 S. Sharma,  D. W. Small,  A. Sodt,  T. Stauch,  T. Stein,  D. Stuck,  
 Y.-C. Su,  A. J. W. Thom,  T. Tsuchimochi,  L. Vogt,  O. Vydrov,  T. Wang,  
 M. A. Watson,  J. Wenzel,  A. White,  C. F. Williams,  V. Vanovschi,  
 S. Yeganeh,  S. R. Yost,  Z.-Q. You,  I. Y. Zhang,  X. Zhang,  Y. Zhao,  
 B. R. Brooks,  G. K. L. Chan,  D. M. Chipman,  C. J. Cramer,  
 W. A. Goddard III,  M. S. Gordon,  W. J. Hehre,  A. Klamt,  
 H. F. Schaefer III,  M. W. Schmidt,  C. D. Sherrill,  D. G. Truhlar,  
 A. Warshel,  X. Xu,  A. Aspuru-Guzik,  R. Baer,  A. T. Bell,  N. A. Besley,  
 J.-D. Chai,  A. Dreuw,  B. D. Dunietz,  T. R. Furlani,  S. R. Gwaltney,  
 C.-P. Hsu,  Y. Jung,  J. Kong,  D. S. Lambrecht,  W. Liang,  C. Ochsenfeld,  
 V. A. Rassolov,  L. V. Slipchenko,  J. E. Subotnik,  T. Van Voorhis,  
 J. M. Herbert,  A. I. Krylov,  P. M. W. Gill,  M. Head-Gordon

 Contributors to earlier versions of Q-Chem not listed above: 
 R. D. Adamson,  J. Baker,  E. F. C. Byrd,  A. K. Chakraborty,  C.-L. Cheng,  
 H. Dachsel,  R. J. Doerksen,  G. Hawkins,  A. Heyden,  S. Hirata,  
 G. Kedziora,  F. J. Keil,  C. Kelley,  P. P. Korambath,  W. Kurlancheek,  
 A. M. Lee,  M. S. Lee,  D. Liotard,  I. Lotan,  P. E. Maslen,  N. Nair,  
 D. Neuhauser,  R. Olson,  B. Peters,  J. Ritchie,  N. E. Schultz,  
 N. Shenvi,  A. C. Simmonett,  K. S. Thanthiriwatte,  Q. Wu,  W. Zhang

 Please cite Q-Chem as follows:
 Y. Shao et al., Mol. Phys. 113, 184-215 (2015)
 DOI: 10.1080/00268976.2014.952696

 Q-Chem 4.3.0 for Intel X86 EM64T Linux

 Parts of Q-Chem use Armadillo 5.200.1 (Boston Tea Smuggler).
 http://arma.sourceforge.net/

 Q-Chem begins on Wed Oct 16 10:08:31 2019  

Host: theochem
0

     Scratch files written to /tmp/qchem212746//

Checking the input file for inconsistencies... 	...done.

--------------------------------------------------------------
User input:
--------------------------------------------------------------
$molecule                                                               
0 1                                                                     
c      2.14229      1.37344      0.00001                                
n     -0.00018      2.74722     -0.00000                                
c     -2.14248      1.37316     -0.00000                                
c     -2.14231     -1.37343      0.00000                                
h     -3.99562      2.24151     -0.00000                                
h     -3.99533     -2.24207      0.00002                                
n      0.00019     -2.74722     -0.00000                                
c      2.14249     -1.37316     -0.00000                                
h      3.99561     -2.24152     -0.00000                                
h      3.99532      2.24206      0.00000                                
$end                                                                    

$rem                                                                    
jobtype freq                                                        
exchange pbe0                                                           
basis sto-3g                                                            
RPA 0                                                                   
MAX_SCF_CYCLES 500                                                      
xc_grid 000075000302                                                    
mem_static 4000                                                         
mem_total 16000                                                         
SYM_IGNORE TRUE                                                         
MOLDEN_FORMAT TRUE
$end                                                                    

--------------------------------------------------------------
 ----------------------------------------------------------------
             Standard Nuclear Orientation (Angstroms)
    I     Atom           X                Y                Z
 ----------------------------------------------------------------
    1      C       2.1422900000     1.3734400000     0.0000100000
    2      N      -0.0001800000     2.7472200000     0.0000000000
    3      C      -2.1424800000     1.3731600000     0.0000000000
    4      C      -2.1423100000    -1.3734300000     0.0000000000
    5      H      -3.9956200000     2.2415100000     0.0000000000
    6      H      -3.9953300000    -2.2420700000     0.0000200000
    7      N       0.0001900000    -2.7472200000     0.0000000000
    8      C       2.1424900000    -1.3731600000     0.0000000000
    9      H       3.9956100000    -2.2415200000     0.0000000000
   10      H       3.9953200000     2.2420600000     0.0000000000
 ----------------------------------------------------------------
 Nuclear Repulsion Energy =   108.6877807706 hartrees
 There are       21 alpha and       21 beta electrons
 Requested basis set is STO-3G
 There are 16 shells and 34 basis functions

 Total QAlloc Memory Limit  16000 MB
 Mega-Array Size      3911 MB
 MEM_STATIC part      4000 MB

                       Distance Matrix (Angstroms)
             C (  1)   N (  2)   C (  3)   C (  4)   H (  5)   H (  6)
   N (  2)  2.545083
   C (  3)  4.284770  2.545091
   C (  4)  5.089508  4.644187  2.746590
   H (  5)  6.198991  4.027317  2.046499  4.062333
   H (  6)  7.123362  6.391732  4.062381  2.046514  4.483580
   N (  7)  4.644183  5.494440  4.644197  2.545114  6.391707  4.027326
   C (  8)  2.746600  4.644197  5.089523  4.284800  7.123358  6.199019
   H (  9)  4.062355  6.391703  7.123346  6.199003  9.162822  7.990940
   H ( 10)  2.046514  4.027308  6.198998  7.123361  7.990940  9.162855
             N (  7)   C (  8)   H (  9)
   C (  8)  2.545091
   H (  9)  4.027296  2.046485
   H ( 10)  6.391712  4.062363  4.483580
 
 tim1(1): 
  1.820000000000016E-004
 tim1(2): 
  0.000000000000000E+000
 A cutoff of  1.0D-11 yielded    109 shell pairs
 There are       598 function pairs
 
 -------------------------------------------------------
 OpenMP Integral Computing Module                       
 Release: version 1.0, May 2013, Q-Chem Inc. Pittsburgh 
 -------------------------------------------------------
 Integral Job Info:
 Integral job number is                      11
 Integral operator is                         1
 short-range coefficients                     0
 long-range coefficients              100000000
 Omega coefficients                           0
 if combine SR and LR in K                    0
 Integral screening is                        0
 Integral computing path is                   2
 max size of driver memory is            800000
 size of driver memory is                 45569
 size of scratch memory is               945100
 max col of scratch BK array                289
 max len of scratch array in speh3           22
 max len of scratch index in speh4            8
 max int batch size is                      520
 min int batch size is                       52
 fixed nKL is                                52
 max L of basis functions is                  1
 order of int derivative is                   0
 number of shells is                         16
 number of basis is                          34
 number of cartesian basis is                34
 number of contracted shell pairs           109
 number of primitive shell pairs            591
 maxK2 (contraction) of shell pair            9
 max number of K2 of shell pair               1
 max number of CS2 of shell pair             20
 max number of PS2 of shell pair            120
 mem total for path MDJ                    9426
 -------------------------------------------------------
 Smallest overlap matrix eigenvalue = 7.01E-01
 Guess from superposition of atomic densities
 Warning:  Energy on first SCF cycle will be non-variational
 A restricted hybrid HF-DFT SCF calculation will be
 performed using Pulay DIIS extrapolation
 Exchange:     0.2500 Hartree-Fock + 0.7500 PBE
 Correlation:  1.0000 PBE
 Using Euler-Maclaurin-Lebedev (75,302) quadrature formula
 SCF converges when DIIS error is below 1.0E-08
 using 4 threads for integral computing 
 -------------------------------------------------------
 OpenMP BLAS3 based DFT computing Module                
 Release: version 1.0, May 2013, Q-Chem Inc. Pittsburgh 
 -------------------------------------------------------
 ---------------------------------------
  Cycle       Energy         DIIS Error
 ---------------------------------------
    1    -257.3736466627      1.28E-02
    2    -256.4847960376      7.65E-02
    3    -256.8301630850      7.25E-02
    4    -256.5815452852      7.61E-02
    5    -256.4395054159      7.68E-02
    6    -256.4371865944      7.69E-02
    7    -256.4374344384      7.69E-02
    8    -236.8557082364      9.63E-02
    9    -251.6481336800      6.48E-02
   10    -252.7240947976      7.10E-02
   11    -253.6778628822      9.05E-02
   12    -253.3338023867      8.62E-02
   13    -253.5053542607      8.76E-02
   14    -253.0928736611      8.33E-02
   15    -253.3447862929      7.60E-02
   16    -252.8108212882      7.68E-02
   17    -253.1409444752      7.88E-02
   18    -253.1235746950      7.88E-02
   19    -253.3158351814      7.93E-02
   20    -253.6049540329      8.49E-02
   21    -253.6854894403      9.02E-02
   22    -253.9904721521      8.89E-02
   23    -257.2572363691      6.47E-02
   24    -237.0657616958      1.07E-01
   25    -251.9923559582      1.10E-01
   26    -255.0961060182      9.25E-02
   27    -256.5215531714      7.45E-02
   28    -255.8959460901      6.86E-02
   29    -255.5617694069      6.05E-02
   30    -252.9791846818      7.09E-02
   31    -252.8882242305      7.30E-02
   32    -252.8154959107      7.04E-02
   33    -252.6997802862      6.86E-02
   34    -252.7750713537      6.84E-02
   35    -255.8127998475      6.35E-02
   36    -255.9459202874      5.42E-02
   37    -257.5031250589      6.15E-02
   38    -254.3073645630      9.52E-02
   39    -254.8768422394      7.50E-02
   40    -238.6741586380      1.09E-01
   41    -247.2453428635      1.25E-01
   42    -250.7618714319      1.22E-01
   43    -255.3082058208      8.21E-02
   44    -254.7829148912      8.01E-02
   45    -252.3815311460      7.84E-02
   46    -254.3831366915      8.80E-02
   47    -254.4408892913      8.94E-02
   48    -253.6577319112      8.75E-02
   49    -254.7838046137      9.16E-02
   50    -256.8138071391      6.64E-02
   51    -256.1025794008      7.18E-02
   52    -255.3394056261      8.90E-02
   53    -256.3897535476      6.37E-02
   54    -256.6330772443      5.96E-02
   55    -256.4435128920      6.51E-02
   56    -257.0803613401      6.72E-02
   57    -256.6794366905      8.31E-02
   58    -250.6983010788      1.13E-01
   59    -256.2896829189      7.52E-02
   60    -254.3037026466      8.79E-02
   61    -257.2245241000      6.41E-02
   62    -256.8897164003      6.89E-02
   63    -256.5949382855      7.41E-02
   64    -255.6179569526      8.27E-02
   65    -255.4894267699      8.33E-02
   66    -255.8559743929      7.67E-02
   67    -255.8784582605      7.57E-02
   68    -252.7903507453      1.09E-01
   69    -252.1530709507      1.12E-01
   70    -253.6749954875      1.07E-01
   71    -256.6624823048      6.49E-02
   72    -250.1836030752      9.58E-02
   73    -256.4400599621      6.44E-02
   74    -247.6150044450      1.38E-01
   75    -258.3241109015      2.72E-02
   76    -257.3891251591      6.13E-02
   77    -257.0069293225      7.08E-02
   78    -257.4925110407      6.36E-02
   79    -257.8264109352      5.39E-02
   80    -258.1653865744      3.99E-02
   81    -257.9407564703      4.76E-02
   82    -257.8056912214      5.32E-02
   83    -257.9053243030      4.99E-02
   84    -257.7686954399      5.48E-02
   85    -257.8279766445      5.12E-02
   86    -257.9727349514      4.55E-02
   87    -258.0652105737      4.13E-02
   88    -258.2244791936      3.66E-02
   89    -257.7257369483      5.72E-02
   90    -258.4356003274      1.88E-02
   91    -258.4255609668      1.93E-02
   92    -258.4862007731      9.18E-03
   93    -258.4713468085      1.22E-02
   94    -258.4956376169      5.71E-03
   95    -258.4947767895      6.10E-03
   96    -258.4981611769      4.80E-03
   97    -258.5006123313      3.64E-03
   98    -258.5001736317      4.12E-03
   99    -258.4986744419      4.55E-03
  100    -258.4967552613      5.63E-03
  101    -258.4966285583      5.48E-03
  102    -258.4948172450      6.24E-03
  103    -258.4951187559      6.17E-03
  104    -258.4957933853      6.00E-03
  105    -258.4969181425      5.38E-03
  106    -258.4977274350      5.11E-03
  107    -258.5000872117      4.20E-03
  108    -258.5004778898      3.93E-03
  109    -258.4992366298      4.49E-03
  110    -258.4992180561      4.59E-03
  111    -258.4998129970      4.33E-03
  112    -256.3619600862      8.13E-02
  113    -258.4930656095      6.25E-03
  114    -258.4941260119      7.35E-03
  115    -258.4809372313      1.10E-02
  116    -258.4801630173      1.12E-02
  117    -258.5028576975      3.29E-03
  118    -258.5029547134      3.26E-03
  119    -258.5021700810      3.89E-03
  120    -258.5024597742      3.76E-03
  121    -258.5028168459      3.63E-03
  122    -258.5029293452      3.59E-03
  123    -258.5032384951      3.51E-03
  124    -258.5032436754      3.50E-03
  125    -258.5037994654      3.32E-03
  126    -258.5038329291      3.31E-03
  127    -258.5039244533      3.17E-03
  128    -257.4318038841      6.74E-02
  129    -258.5002606749      5.35E-03
  130    -258.5048672083      2.54E-03
  131    -258.5072866631      5.91E-04
  132    -258.5075728039      4.04E-04
  133    -258.5078402812      6.81E-04
  134    -258.5079259390      6.90E-04
  135    -258.5080570713      2.79E-04
  136    -258.5080807996      1.78E-04
  137    -258.5080978981      1.08E-04
  138    -258.5081043309      1.07E-04
  139    -258.5080983384      1.25E-04
  140    -258.5080799208      1.38E-04
  141    -258.5080715397      1.19E-04
  142    -258.5080749693      4.03E-05
  143    -258.5080757877      2.22E-05
  144    -258.5080759552      4.10E-06
  145    -258.5080759665      3.03E-06
  146    -258.5080759823      9.33E-07
  147    -258.5080759926      5.20E-07
  148    -258.5080759954      4.32E-07
  149    -258.5080759958      1.33E-07
  150    -258.5080759959      4.55E-08
  151    -258.5080759959      3.17E-08
  152    -258.5080759959      1.39E-08
  153    -258.5080759959      7.84E-09 Convergence criterion met
 ---------------------------------------
 SCF time:  CPU 77.11 s  wall 19.33 s
 SCF   energy in the final basis set = -258.5080759959
 Total energy in the final basis set = -258.5080759959
 
 --------------------------------------------------------------
 
                    Orbital Energies (a.u.)
 --------------------------------------------------------------
 
 Alpha MOs
 -- Occupied --
-14.150 -14.113 -10.071 -10.071 -10.034 -10.034  -0.647  -0.618
 -0.516  -0.510  -0.479  -0.471  -0.194  -0.193  -0.178  -0.172
 -0.169  -0.145  -0.113  -0.106  -0.103
 -- Virtual --
 -0.055  -0.042  -0.031  -0.030  -0.015  -0.013  -0.009   0.013
  0.036   0.040   0.042   0.062   0.064
 --------------------------------------------------------------
 
          Ground-State Mulliken Net Atomic Charges

     Atom                 Charge (a.u.)
  ----------------------------------------
      1 C                     0.083126
      2 N                    -0.087148
      3 C                     0.083124
      4 C                     0.150222
      5 H                    -0.081932
      6 H                    -0.084303
      7 N                    -0.047077
      8 C                     0.150222
      9 H                    -0.084301
     10 H                    -0.081934
  ----------------------------------------
  Sum of atomic charges =    -0.000000

 -----------------------------------------------------------------
                    Cartesian Multipole Moments
 -----------------------------------------------------------------
    Charge (ESU x 10^10)
                -0.0000
    Dipole Moment (Debye)
         X       0.0001      Y      -1.3326      Z      -0.0000
       Tot       1.3326
    Quadrupole Moments (Debye-Ang)
        XX     -40.4788     XY      -0.0003     YY     -40.5403
        XZ       0.0000     YZ       0.0000     ZZ     -28.6217
    Octopole Moments (Debye-Ang^2)
       XXX       0.0004    XXY      -0.4508    XYY      -0.0001
       YYY       6.2193    XXZ      -0.0002    XYZ      -0.0000
       YYZ      -0.0002    XZZ       0.0004    YZZ      -5.8186
       ZZZ      -0.0002
    Hexadecapole Moments (Debye-Ang^3)
      XXXX   -1111.5103   XXXY      -0.0113   XXYY    -338.9265
      XYYY      -0.0105   YYYY    -867.2297   XXXZ       0.0003
      XXYZ       0.0002   XYYZ       0.0002   YYYZ       0.0002
      XXZZ    -140.2336   XYZZ      -0.0010   YYZZ    -124.6695
      XZZZ      -0.0000   YZZZ      -0.0000   ZZZZ     -19.8441
 -----------------------------------------------------------------
 Calculating MO derivatives via CPSCF
   1         3          30      1.379772    0.750339
   2         3          30      1.468270    0.716281
   3         3          30      0.029885    0.010013
   4         4          29      0.002295    0.000709
   5        21          12      0.000117    0.000031
   6        28           5      0.000008    0.000002
   7        33           0      0.000000    0.000000    Roots Converged
 Calculating analytic Hessian of the SCF energy
 Polarizability Matrix (a.u.)
            1           2           3
    1-307.7147267  -0.0093716   0.0001563
    2  -0.0093716-193.5341517   0.0000834
    3   0.0001563   0.0000834 -19.6952770
 
 Direct stationary perturbation theory relativistic correction:
 
 rels  =       0.066653950735
 relv  =      -0.258093105899
 rel2e =       0.103780333213
 E_rel =      -0.087658821951
 
 Hessian of the SCF Energy
            1           2           3           4           5           6
    1  -0.0705690   0.0169971   0.0000001   0.0609183  -0.0343438   0.0000002
    2   0.0169971  -0.0025364   0.0000001  -0.0516639  -0.0096893  -0.0000001
    3   0.0000001   0.0000001   0.0333249   0.0000000  -0.0000000  -0.0104962
    4   0.0609183  -0.0516639   0.0000000  -0.1227869  -0.0000084  -0.0000002
    5  -0.0343438  -0.0096893  -0.0000000  -0.0000084   0.0088602   0.0000000
    6   0.0000002  -0.0000001  -0.0104962  -0.0000002   0.0000000   0.0259319
    7  -0.0053043   0.0096476   0.0000001   0.0609080   0.0343527   0.0000000
    8  -0.0096502   0.0165188   0.0000001   0.0516726  -0.0096771  -0.0000000
    9   0.0000001   0.0000000  -0.0028325  -0.0000000   0.0000001  -0.0104960
   10  -0.0058896   0.0127565   0.0000002   0.0150424   0.0009190  -0.0000000
   11   0.0087276  -0.0148927  -0.0000002  -0.0201075  -0.0012255   0.0000000
   12  -0.0000000  -0.0000001  -0.0041045   0.0000001   0.0000001  -0.0017650
   13   0.0000292   0.0003196   0.0000000  -0.0006256  -0.0013449  -0.0000000
   14  -0.0010545   0.0021633   0.0000000   0.0070554   0.0063554  -0.0000000
   15  -0.0000000  -0.0000000   0.0016105  -0.0000000  -0.0000000  -0.0019359
   16  -0.0005555   0.0011355   0.0000000   0.0019151   0.0001218   0.0000000
   17   0.0011932  -0.0024955  -0.0000000  -0.0029367  -0.0001643   0.0000000
   18   0.0000000   0.0000000   0.0019922  -0.0000000  -0.0000000   0.0006637
   19   0.0167456  -0.0334330  -0.0000004  -0.0317008  -0.0000027  -0.0000000
   20   0.0002793  -0.0023112   0.0000000  -0.0000019   0.0005720   0.0000000
   21   0.0000000   0.0000001  -0.0034947  -0.0000001  -0.0000000   0.0011349
   22  -0.0216990   0.0146386   0.0000001   0.0150396  -0.0009164   0.0000000
   23  -0.0110710   0.0361339   0.0000000   0.0201093  -0.0012222   0.0000001
   24  -0.0000001  -0.0000001   0.0110448   0.0000001  -0.0000000  -0.0017653
   25   0.0008557   0.0050225   0.0000001   0.0019148  -0.0001215  -0.0000000
   26  -0.0010401   0.0038956   0.0000000   0.0029371  -0.0001638   0.0000000
   27   0.0000000   0.0000001  -0.0067416   0.0000000   0.0000000   0.0006638
   28   0.0254687   0.0245794  -0.0000002  -0.0006249   0.0013441  -0.0000000
   29   0.0299621  -0.0267867  -0.0000001  -0.0070561   0.0063546  -0.0000001
   30  -0.0000003  -0.0000001  -0.0203029   0.0000001  -0.0000001  -0.0019361
            7           8           9          10          11          12
    1  -0.0053043  -0.0096502   0.0000001  -0.0058896   0.0087276  -0.0000000
    2   0.0096476   0.0165188   0.0000000   0.0127565  -0.0148927  -0.0000001
    3   0.0000001   0.0000001  -0.0028325   0.0000002  -0.0000002  -0.0041045
    4   0.0609080   0.0516726  -0.0000000   0.0150424  -0.0201075   0.0000001
    5   0.0343527  -0.0096771   0.0000001   0.0009190  -0.0012255   0.0000001
    6   0.0000000  -0.0000000  -0.0104960  -0.0000000   0.0000000  -0.0017650
    7  -0.0705640  -0.0170060  -0.0000001  -0.0217001   0.0110641   0.0000002
    8  -0.0170060  -0.0025417   0.0000003  -0.0146467   0.0361352  -0.0000007
    9  -0.0000001   0.0000003   0.0333262  -0.0000001  -0.0000002   0.0110433
   10  -0.0217001  -0.0146467  -0.0000001  -0.0489591   0.0070086   0.0000010
   11   0.0110641   0.0361352  -0.0000002   0.0070086  -0.0154075   0.0000002
   12   0.0000002  -0.0000007   0.0110433   0.0000010   0.0000002  -0.0100274
   13   0.0254754  -0.0245722  -0.0000000   0.0009443   0.0026796  -0.0000000
   14  -0.0299554  -0.0267950   0.0000000  -0.0022630   0.0050342  -0.0000001
   15   0.0000000  -0.0000000  -0.0203036   0.0000000   0.0000000  -0.0024916
   16   0.0008564  -0.0050229  -0.0000001   0.0254761   0.0255200  -0.0000002
   17   0.0010397   0.0038950   0.0000000   0.0309314  -0.0266417  -0.0000002
   18  -0.0000001   0.0000002  -0.0067413  -0.0000007  -0.0000001  -0.0038476
   19   0.0167421   0.0334360   0.0000004   0.0563762  -0.0582699  -0.0000008
   20  -0.0002771  -0.0023072  -0.0000001  -0.0120316  -0.0079072   0.0000005
   21   0.0000000   0.0000002  -0.0034944  -0.0000001  -0.0000000   0.0004866
   22  -0.0058871  -0.0127553   0.0000000  -0.0197095   0.0216434  -0.0000002
   23  -0.0087268  -0.0148956  -0.0000001  -0.0216490   0.0246848   0.0000001
   24  -0.0000001  -0.0000000  -0.0041045  -0.0000004   0.0000003   0.0180076
   25  -0.0005553  -0.0011354  -0.0000000  -0.0014617   0.0012165   0.0000000
   26  -0.0011931  -0.0024959  -0.0000000  -0.0036418   0.0043721   0.0000000
   27   0.0000000  -0.0000000   0.0019922   0.0000001  -0.0000001  -0.0074012
   28   0.0000291  -0.0003199   0.0000000  -0.0001190   0.0005177  -0.0000000
   29   0.0010542   0.0021634   0.0000000   0.0026166  -0.0041517   0.0000000
   30  -0.0000000  -0.0000000   0.0016105  -0.0000000   0.0000000   0.0000998
           13          14          15          16          17          18
    1   0.0000292  -0.0010545  -0.0000000  -0.0005555   0.0011932   0.0000000
    2   0.0003196   0.0021633  -0.0000000   0.0011355  -0.0024955   0.0000000
    3   0.0000000   0.0000000   0.0016105   0.0000000  -0.0000000   0.0019922
    4  -0.0006256   0.0070554  -0.0000000   0.0019151  -0.0029367  -0.0000000
    5  -0.0013449   0.0063554  -0.0000000   0.0001218  -0.0001643  -0.0000000
    6  -0.0000000  -0.0000000  -0.0019359   0.0000000   0.0000000   0.0006637
    7   0.0254754  -0.0299554   0.0000000   0.0008564   0.0010397  -0.0000001
    8  -0.0245722  -0.0267950  -0.0000000  -0.0050229   0.0038950   0.0000002
    9  -0.0000000   0.0000000  -0.0203036  -0.0000001   0.0000000  -0.0067413
   10   0.0009443  -0.0022630   0.0000000   0.0254761   0.0309314  -0.0000007
   11   0.0026796   0.0050342   0.0000000   0.0255200  -0.0266417  -0.0000001
   12  -0.0000000  -0.0000001  -0.0024916  -0.0000002  -0.0000002  -0.0038476
   13  -0.0261354   0.0229417   0.0000000  -0.0002000   0.0003170   0.0000000
   14   0.0229417   0.0163850  -0.0000000  -0.0008851   0.0008142   0.0000000
   15   0.0000000  -0.0000000   0.0224140   0.0000000   0.0000000   0.0008986
   16  -0.0002000  -0.0008851   0.0000000  -0.0254652  -0.0223996   0.0000003
   17   0.0003170   0.0008142   0.0000000  -0.0223996   0.0152967   0.0000002
   18   0.0000000   0.0000000   0.0008986   0.0000003   0.0000002   0.0151350
   19   0.0008207   0.0070600  -0.0000001  -0.0001429  -0.0120861   0.0000003
   20   0.0001564   0.0000253   0.0000000   0.0027846   0.0048063  -0.0000003
   21  -0.0000000   0.0000000   0.0004804  -0.0000001  -0.0000001  -0.0034134
   22  -0.0001185  -0.0026161   0.0000000  -0.0014618   0.0036409   0.0000001
   23  -0.0005171  -0.0041522   0.0000000  -0.0012171   0.0043723  -0.0000000
   24  -0.0000000  -0.0000000   0.0000997  -0.0000001   0.0000000  -0.0074010
   25  -0.0001275  -0.0002629   0.0000000  -0.0002945   0.0003002  -0.0000000
   26   0.0000000  -0.0005413   0.0000000  -0.0003003   0.0006583  -0.0000000
   27  -0.0000000   0.0000000  -0.0001820   0.0000000  -0.0000000   0.0028958
   28  -0.0000625  -0.0000202  -0.0000000  -0.0001275   0.0000000   0.0000000
   29   0.0000200   0.0007111  -0.0000000   0.0002629  -0.0005413  -0.0000000
   30  -0.0000000  -0.0000000  -0.0005900  -0.0000000   0.0000000  -0.0001821
           19          20          21          22          23          24
    1   0.0167456   0.0002793   0.0000000  -0.0216990  -0.0110710  -0.0000001
    2  -0.0334330  -0.0023112   0.0000001   0.0146386   0.0361339  -0.0000001
    3  -0.0000004   0.0000000  -0.0034947   0.0000001   0.0000000   0.0110448
    4  -0.0317008  -0.0000019  -0.0000001   0.0150396   0.0201093   0.0000001
    5  -0.0000027   0.0005720  -0.0000000  -0.0009164  -0.0012222  -0.0000000
    6  -0.0000000   0.0000000   0.0011349   0.0000000   0.0000001  -0.0017653
    7   0.0167421  -0.0002771   0.0000000  -0.0058871  -0.0087268  -0.0000001
    8   0.0334360  -0.0023072   0.0000002  -0.0127553  -0.0148956  -0.0000000
    9   0.0000004  -0.0000001  -0.0034944   0.0000000  -0.0000001  -0.0041045
   10   0.0563762  -0.0120316  -0.0000001  -0.0197095  -0.0216490  -0.0000004
   11  -0.0582699  -0.0079072  -0.0000000   0.0216434   0.0246848   0.0000003
   12  -0.0000008   0.0000005   0.0004866  -0.0000002   0.0000001   0.0180076
   13   0.0008207   0.0001564  -0.0000000  -0.0001185  -0.0005171  -0.0000000
   14   0.0070600   0.0000253   0.0000000  -0.0026161  -0.0041522  -0.0000000
   15  -0.0000001   0.0000000   0.0004804   0.0000000   0.0000000   0.0000997
   16  -0.0001429   0.0027846  -0.0000001  -0.0014618  -0.0012171  -0.0000001
   17  -0.0120861   0.0048063  -0.0000001   0.0036409   0.0043723   0.0000000
   18   0.0000003  -0.0000003  -0.0034134   0.0000001  -0.0000000  -0.0074010
   19  -0.1158866  -0.0000084   0.0000001   0.0563679   0.0582780   0.0000007
   20  -0.0000084   0.0101894  -0.0000001   0.0120405  -0.0078999  -0.0000002
   21   0.0000001  -0.0000001   0.0107474   0.0000001  -0.0000001   0.0004864
   22   0.0563679   0.0120405   0.0000001  -0.0489595  -0.0070142   0.0000000
   23   0.0582780  -0.0078999  -0.0000001  -0.0070142  -0.0154032   0.0000001
   24   0.0000007  -0.0000002   0.0004864   0.0000000   0.0000001  -0.0100289
   25  -0.0001439  -0.0027856   0.0000000   0.0254836  -0.0255120  -0.0000001
   26   0.0120859   0.0048079   0.0000000  -0.0309238  -0.0266517  -0.0000001
   27  -0.0000002   0.0000001  -0.0034137  -0.0000000  -0.0000001  -0.0038471
   28   0.0008217  -0.0001563   0.0000000   0.0009442  -0.0026802  -0.0000000
   29  -0.0070596   0.0000245  -0.0000000   0.0022625   0.0050338   0.0000000
   30   0.0000001   0.0000000   0.0004804  -0.0000000   0.0000000  -0.0024918
           25          26          27          28          29          30
    1   0.0008557  -0.0010401   0.0000000   0.0254687   0.0299621  -0.0000003
    2   0.0050225   0.0038956   0.0000001   0.0245794  -0.0267867  -0.0000001
    3   0.0000001   0.0000000  -0.0067416  -0.0000002  -0.0000001  -0.0203029
    4   0.0019148   0.0029371   0.0000000  -0.0006249  -0.0070561   0.0000001
    5  -0.0001215  -0.0001638   0.0000000   0.0013441   0.0063546  -0.0000001
    6  -0.0000000   0.0000000   0.0006638  -0.0000000  -0.0000001  -0.0019361
    7  -0.0005553  -0.0011931   0.0000000   0.0000291   0.0010542  -0.0000000
    8  -0.0011354  -0.0024959  -0.0000000  -0.0003199   0.0021634  -0.0000000
    9  -0.0000000  -0.0000000   0.0019922   0.0000000   0.0000000   0.0016105
   10  -0.0014617  -0.0036418   0.0000001  -0.0001190   0.0026166  -0.0000000
   11   0.0012165   0.0043721  -0.0000001   0.0005177  -0.0041517   0.0000000
   12   0.0000000   0.0000000  -0.0074012  -0.0000000   0.0000000   0.0000998
   13  -0.0001275   0.0000000  -0.0000000  -0.0000625   0.0000200  -0.0000000
   14  -0.0002629  -0.0005413   0.0000000  -0.0000202   0.0007111  -0.0000000
   15   0.0000000   0.0000000  -0.0001820  -0.0000000  -0.0000000  -0.0005900
   16  -0.0002945  -0.0003003   0.0000000  -0.0001275   0.0002629  -0.0000000
   17   0.0003002   0.0006583  -0.0000000   0.0000000  -0.0005413   0.0000000
   18  -0.0000000  -0.0000000   0.0028958   0.0000000  -0.0000000  -0.0001821
   19  -0.0001439   0.0120859  -0.0000002   0.0008217  -0.0070596   0.0000001
   20  -0.0027856   0.0048079   0.0000001  -0.0001563   0.0000245   0.0000000
   21   0.0000000   0.0000000  -0.0034137   0.0000000  -0.0000000   0.0004804
   22   0.0254836  -0.0309238  -0.0000000   0.0009442   0.0022625  -0.0000000
   23  -0.0255120  -0.0266517  -0.0000001  -0.0026802   0.0050338   0.0000000
   24  -0.0000001  -0.0000001  -0.0038471  -0.0000000   0.0000000  -0.0024918
   25  -0.0254711   0.0223932   0.0000000  -0.0002001   0.0008849  -0.0000000
   26   0.0223932   0.0153046   0.0000000  -0.0003171   0.0008142  -0.0000000
   27   0.0000000   0.0000000   0.0151351   0.0000000   0.0000000   0.0008987
   28  -0.0002001  -0.0003171   0.0000000  -0.0261297  -0.0229476   0.0000002
   29   0.0008849   0.0008142   0.0000000  -0.0229476   0.0163781   0.0000001
   30  -0.0000000  -0.0000000   0.0008987   0.0000002   0.0000001   0.0224135
 Gradient time:  CPU 139.61 s  wall 133.47 s
 **********************************************************************
 **                                                                  **
 **                       VIBRATIONAL ANALYSIS                       **
 **                       --------------------                       **
 **                                                                  **
 **        VIBRATIONAL FREQUENCIES (CM**-1) AND NORMAL MODES         **
 **     FORCE CONSTANTS (mDYN/ANGSTROM) AND REDUCED MASSES (AMU)     **
 **                  INFRARED INTENSITIES (KM/MOL)                   **
 **                                                                  **
 **********************************************************************
 

 Mode:                 1                      2                      3
 Frequency:     -1033.22               -1018.02               -1011.25
 Force Cnst:      0.7460                 0.6772                 0.6615
 Red. Mass:       1.1861                 1.1091                 1.0980
 IR Active:          YES                    YES                    YES
 IR Intens:      408.235                 50.351                 87.207
 Raman Active:       YES                    YES                    YES
               X      Y      Z        X      Y      Z        X      Y      Z
 C         -0.066 -0.000  0.000   -0.062 -0.018  0.000    0.028  0.005 -0.000
 N          0.035 -0.000  0.000    0.000 -0.018  0.000   -0.010 -0.000 -0.000
 C         -0.066  0.000  0.000    0.062 -0.018  0.000    0.029 -0.005  0.000
 C         -0.047  0.008  0.000    0.016  0.008 -0.000   -0.053 -0.012  0.000
 H          0.548 -0.271 -0.000   -0.629  0.279  0.000   -0.323  0.150  0.000
 H          0.300  0.170 -0.000   -0.138 -0.059  0.000    0.552  0.256 -0.000
 N          0.037  0.000  0.000   -0.000  0.004 -0.000    0.020 -0.000  0.000
 C         -0.047 -0.008 -0.000   -0.016  0.008  0.000   -0.053  0.012  0.000
 H          0.300 -0.169  0.000    0.137 -0.058 -0.000    0.550 -0.255 -0.000
 H          0.548  0.271 -0.000    0.629  0.279 -0.000   -0.322 -0.150  0.000
 TransDip  -0.647 -0.000  0.000    0.000 -0.227  0.000   -0.299 -0.001  0.000

 Mode:                 4                      5                      6
 Frequency:     -1007.96                -829.05                -532.69
 Force Cnst:      0.6551                 1.8152                 1.3008
 Red. Mass:       1.0944                 4.4825                 7.7803
 IR Active:          YES                    YES                    YES
 IR Intens:      127.318                 11.590                  0.189
 Raman Active:       YES                    YES                    YES
               X      Y      Z        X      Y      Z        X      Y      Z
 C          0.010 -0.001 -0.000   -0.097  0.179  0.000   -0.216  0.105 -0.000
 N         -0.000  0.004  0.000    0.220  0.000  0.000    0.476  0.000  0.000
 C         -0.010 -0.001  0.000   -0.097 -0.179 -0.000   -0.216 -0.105  0.000
 C          0.057  0.021 -0.000   -0.116  0.189  0.000    0.132 -0.186 -0.000
 H          0.140 -0.070 -0.000   -0.414 -0.120  0.000   -0.309 -0.027  0.000
 H         -0.625 -0.281  0.000   -0.369  0.174 -0.000    0.292 -0.203  0.000
 N          0.000  0.014 -0.000    0.256  0.000  0.000   -0.329 -0.000  0.000
 C         -0.057  0.021  0.000   -0.116 -0.189 -0.000    0.132  0.186  0.000
 H          0.627 -0.282 -0.000   -0.369 -0.174  0.000    0.292  0.203 -0.000
 H         -0.141 -0.071  0.000   -0.414  0.120  0.000   -0.309  0.027 -0.000
 TransDip  -0.001  0.361 -0.000    0.109  0.000 -0.000    0.014  0.000 -0.000

 Mode:                 7                      8                      9
 Frequency:      -424.70                -261.24                -245.98
 Force Cnst:      0.5817                 0.2417                 0.2735
 Red. Mass:       5.4734                 6.0103                 7.6728
 IR Active:          YES                    YES                    YES
 IR Intens:       24.356                 19.405                  0.000
 Raman Active:       YES                    YES                    YES
               X      Y      Z        X      Y      Z        X      Y      Z
 C          0.329 -0.220  0.000   -0.182 -0.181  0.000    0.000  0.000 -0.338
 N         -0.000  0.199 -0.000    0.000 -0.262 -0.000   -0.000 -0.000  0.000
 C         -0.329 -0.220 -0.000    0.183 -0.181 -0.000    0.000 -0.000  0.338
 C         -0.087  0.124 -0.000   -0.108  0.330  0.000    0.000  0.000 -0.435
 H         -0.456 -0.247 -0.000    0.249 -0.186 -0.000    0.000 -0.000  0.269
 H         -0.109  0.142 -0.000   -0.138  0.404 -0.000    0.000  0.000  0.353
 N         -0.000 -0.019  0.000   -0.000 -0.025  0.000   -0.000  0.000 -0.000
 C          0.087  0.124 -0.000    0.108  0.330 -0.000   -0.000 -0.000  0.435
 H          0.109  0.142  0.000    0.138  0.404  0.000   -0.000 -0.000 -0.353
 H          0.456 -0.246  0.000   -0.249 -0.186  0.000    0.000  0.000 -0.269
 TransDip  -0.000  0.158  0.000   -0.000  0.141 -0.000    0.000  0.000 -0.000

 Mode:                10                     11                     12
 Frequency:      -123.45                -102.92                  95.24
 Force Cnst:      0.0570                 0.0389                 0.0643
 Red. Mass:       6.3527                 6.2339                12.0230
 IR Active:          YES                    YES                    YES
 IR Intens:        0.019                  6.223                  0.295
 Raman Active:       YES                    YES                    YES
               X      Y      Z        X      Y      Z        X      Y      Z
 C         -0.061 -0.259 -0.000    0.009 -0.170  0.000   -0.000  0.000  0.189
 N          0.170 -0.000  0.000   -0.000 -0.070 -0.000    0.000  0.000 -0.035
 C         -0.061  0.259  0.000   -0.009 -0.171 -0.000    0.000  0.000  0.189
 C         -0.186 -0.261 -0.000    0.362  0.022 -0.000   -0.000 -0.000 -0.508
 H         -0.057  0.326  0.000   -0.012 -0.207 -0.000    0.000  0.000  0.089
 H         -0.244 -0.314  0.000    0.481  0.006 -0.000   -0.000 -0.000 -0.152
 N          0.298  0.000 -0.000   -0.000  0.354  0.000    0.000 -0.000  0.591
 C         -0.187  0.261  0.000   -0.362  0.021 -0.000    0.000  0.000 -0.508
 H         -0.244  0.314 -0.000   -0.481  0.006  0.000    0.000  0.000 -0.152
 H         -0.057 -0.326 -0.000    0.012 -0.207  0.000    0.000  0.000  0.089
 TransDip  -0.004 -0.000  0.000    0.000 -0.080 -0.000    0.000  0.000 -0.017

 Mode:                13                     14                     15
 Frequency:       190.42                 206.21                 271.52
 Force Cnst:      0.1549                 0.2584                 0.4309
 Red. Mass:       7.2496                10.3120                 9.9211
 IR Active:          YES                    YES                    YES
 IR Intens:        0.234                  1.716                  0.320
 Raman Active:       YES                    YES                    YES
               X      Y      Z        X      Y      Z        X      Y      Z
 C          0.296  0.271  0.000    0.064 -0.023  0.000    0.000  0.000 -0.413
 N          0.065  0.000 -0.000    0.000 -0.258 -0.000   -0.000 -0.000  0.587
 C          0.296 -0.271 -0.000   -0.064 -0.024  0.000   -0.000 -0.000 -0.413
 C         -0.265 -0.204  0.000   -0.353 -0.170 -0.000    0.000  0.000 -0.024
 H          0.262 -0.267 -0.000   -0.038  0.015  0.000    0.000 -0.000 -0.343
 H         -0.225 -0.165  0.000   -0.263 -0.216 -0.000    0.000  0.000 -0.115
 N         -0.123 -0.000 -0.000   -0.000  0.618  0.000   -0.000  0.000  0.228
 C         -0.265  0.204  0.000    0.353 -0.170 -0.000   -0.000  0.000 -0.024
 H         -0.225  0.165  0.000    0.263 -0.216 -0.000   -0.000  0.000 -0.115
 H          0.262  0.267  0.000    0.038  0.015  0.000    0.000  0.000 -0.343
 TransDip   0.016  0.000  0.000   -0.000  0.042 -0.000    0.000  0.000 -0.018

 Mode:                16                     17                     18
 Frequency:       309.76                 557.15                 693.87
 Force Cnst:      0.5272                 0.2048                 0.3040
 Red. Mass:       9.3249                 1.1199                 1.0716
 IR Active:          YES                    YES                    YES
 IR Intens:        2.077                  0.000                  0.743
 Raman Active:       YES                    YES                    YES
               X      Y      Z        X      Y      Z        X      Y      Z
 C         -0.333 -0.240 -0.000   -0.000 -0.000  0.070    0.000  0.000  0.007
 N         -0.000  0.550  0.000    0.000 -0.000 -0.000   -0.000 -0.000  0.023
 C          0.333 -0.240 -0.000   -0.000  0.000 -0.070   -0.000  0.000  0.007
 C         -0.107 -0.112  0.000   -0.000  0.000 -0.015   -0.000 -0.000 -0.042
 H          0.199 -0.317 -0.000   -0.000  0.000 -0.147   -0.000 -0.000 -0.179
 H         -0.062 -0.082  0.000    0.000  0.000  0.688    0.000  0.000  0.682
 N         -0.000  0.111 -0.000    0.000 -0.000  0.000    0.000 -0.000 -0.036
 C          0.107 -0.112 -0.000    0.000  0.000  0.015    0.000  0.000 -0.042
 H          0.062 -0.082 -0.000    0.000  0.000 -0.688   -0.000 -0.000  0.682
 H         -0.199 -0.317 -0.000   -0.000  0.000  0.147   -0.000  0.000 -0.179
 TransDip   0.000 -0.046  0.000    0.000  0.000 -0.000    0.000  0.000 -0.028

 Mode:                19                     20                     21
 Frequency:       784.91                 801.74                 871.98
 Force Cnst:      0.3949                 0.4514                 0.5209
 Red. Mass:       1.0879                 1.1918                 1.1627
 IR Active:          YES                    YES                    YES
 IR Intens:        2.907                  0.000                  2.556
 Raman Active:       YES                    YES                    YES
               X      Y      Z        X      Y      Z        X      Y      Z
 C         -0.000 -0.000 -0.058    0.000  0.000  0.087   -0.002 -0.009 -0.000
 N          0.000 -0.000 -0.011   -0.000 -0.000 -0.000   -0.010 -0.000  0.000
 C         -0.000 -0.000 -0.058    0.000 -0.000 -0.087   -0.002  0.009  0.000
 C         -0.000  0.000 -0.011    0.000 -0.000 -0.029    0.036 -0.075 -0.000
 H          0.000  0.000  0.680    0.000  0.000  0.700   -0.061 -0.129 -0.000
 H          0.000  0.000  0.183   -0.000  0.000  0.037   -0.271  0.633 -0.000
 N          0.000  0.000  0.007   -0.000 -0.000  0.000   -0.000  0.000 -0.000
 C          0.000  0.000 -0.011    0.000  0.000  0.029    0.036  0.075  0.000
 H         -0.000 -0.000  0.183   -0.000 -0.000 -0.037   -0.270 -0.631 -0.000
 H          0.000  0.000  0.681   -0.000 -0.000 -0.700   -0.061  0.128  0.000
 TransDip   0.000  0.000 -0.055   -0.000 -0.000 -0.000    0.051  0.000  0.000

 Mode:                22                     23                     24
 Frequency:       876.19                 883.46                 898.57
 Force Cnst:      0.5055                 0.5389                 0.5309
 Red. Mass:       1.1175                 1.1719                 1.1159
 IR Active:          YES                    YES                    YES
 IR Intens:        5.100                  1.199                 27.547
 Raman Active:       YES                    YES                    YES
               X      Y      Z        X      Y      Z        X      Y      Z
 C         -0.004  0.020 -0.000    0.032 -0.075  0.000    0.024 -0.061  0.000
 N          0.000 -0.005  0.000    0.016  0.000 -0.000   -0.000  0.016 -0.000
 C          0.004  0.020  0.000    0.032  0.075 -0.000   -0.024 -0.061  0.000
 C          0.027 -0.061 -0.000   -0.013  0.016  0.000    0.010 -0.017  0.000
 H         -0.077 -0.174  0.000   -0.274 -0.634  0.000    0.267  0.623 -0.000
 H         -0.271  0.619  0.000    0.049 -0.113 -0.000   -0.077  0.175  0.000
 N          0.000  0.012 -0.000   -0.018  0.000  0.000    0.000  0.004 -0.000
 C         -0.027 -0.061 -0.000   -0.013 -0.016  0.000   -0.010 -0.017 -0.000
 H          0.272  0.622  0.000    0.049  0.114  0.000    0.077  0.175  0.000
 H          0.077 -0.175  0.000   -0.274  0.634 -0.000   -0.267  0.622 -0.000
 TransDip  -0.000  0.072 -0.000    0.035 -0.000  0.000   -0.000 -0.168  0.000

 STANDARD THERMODYNAMIC QUANTITIES AT   298.15 K  AND     1.00 ATM

   This Molecule has 11 Imaginary Frequencies
   Zero point vibrational energy:       10.637 kcal/mol

   Atom    1 Element C  Has Mass   12.00000
   Atom    2 Element N  Has Mass   14.00307
   Atom    3 Element C  Has Mass   12.00000
   Atom    4 Element C  Has Mass   12.00000
   Atom    5 Element H  Has Mass    1.00783
   Atom    6 Element H  Has Mass    1.00783
   Atom    7 Element N  Has Mass   14.00307
   Atom    8 Element C  Has Mass   12.00000
   Atom    9 Element H  Has Mass    1.00783
   Atom   10 Element H  Has Mass    1.00783
   Molecular Mass:    80.037460 amu
   Principal axes and moments of inertia in amu*Bohr^2:
                             1           2           3
    Eigenvalues --     1016.56681  1150.43189  2166.99869
          X              -0.00008     1.00000    -0.00000
          Y               1.00000     0.00008    -0.00000
          Z               0.00000     0.00000     1.00000
   Rotational Symmetry Number is   1
   The Molecule is an Asymmetric Top
   Translational Enthalpy:        0.889 kcal/mol
   Rotational Enthalpy:           0.889 kcal/mol
   Vibrational Enthalpy:         12.788 kcal/mol
   gas constant (RT):             0.592 kcal/mol
   Translational Entropy:        39.054  cal/mol.K
   Rotational Entropy:           29.317  cal/mol.K
   Vibrational Entropy:          12.668  cal/mol.K

   Total Enthalpy:               15.158 kcal/mol
   Total Entropy:                81.040  cal/mol.K
Archival summary:
1\1\theochem\FREQ\ProcedureUnspecified\STO-3G\244\ehrmaier\WedOct1610:11:042019WedOct1610:11:042019\0\\#,FREQ,ProcedureUnspecified,STO-3G,\\0,1\N\C,1,2.54508\H,2,2.04651,1,122.216\C,1,2.54509,2,114.656,3,-180,0\H,4,2.0465,1,122.217,2,-180,0\C,4,2.74659,1,122.672,2,0,0\H,6,2.04651,4,115.112,1,-180,0\N,6,2.54511,4,122.672,1,-0,0\C,8,2.54509,6,114.656,4,-0,0\H,9,2.04649,8,122.217,6,-180,0\\\@

 Total job time:  152.91s(wall), 217.04s(cpu) 
 Wed Oct 16 10:11:04 2019

======= MOLDEN-FORMATTED INPUT FILE FOLLOWS =======
[Molden Format]
[Atoms] (Angs)
  C      1    6      2.14229000      1.37344000      0.00001000
  N      2    7     -0.00018000      2.74722000     -0.00000000
  C      3    6     -2.14248000      1.37316000     -0.00000000
  C      4    6     -2.14231000     -1.37343000      0.00000000
  H      5    1     -3.99562000      2.24151000     -0.00000000
  H      6    1     -3.99533000     -2.24207000      0.00002000
  N      7    7      0.00019000     -2.74722000     -0.00000000
  C      8    6      2.14249000     -1.37316000     -0.00000000
  H      9    1      3.99561000     -2.24152000     -0.00000000
  H     10    1      3.99532000      2.24206000      0.00000000
[FREQ]
  -1033.22050097
  -1018.02097891
  -1011.24695332
  -1007.96468359
   -829.05083486
   -532.68977931
   -424.69909637
   -261.23913037
   -245.97687323
   -123.45217118
   -102.91522999
     95.23814135
    190.41772005
    206.20924095
    271.52360402
    309.76241718
    557.14968158
    693.87307142
    784.91421989
    801.73739344
    871.97853797
    876.19217195
    883.45873098
    898.57302287
[FR-COORD]
  C      4.04834138      2.59542545      0.00001890
  N     -0.00034015      5.19149341     -0.00000000
  C     -4.04870043      2.59489633     -0.00000000
  C     -4.04837917     -2.59540655      0.00000000
  H     -7.55062750      4.23584001     -0.00000000
  H     -7.55007948     -4.23689825      0.00003779
  N      0.00035905     -5.19149341     -0.00000000
  C      4.04871933     -2.59489633     -0.00000000
  H      7.55060860     -4.23585890     -0.00000000
  H      7.55006058      4.23687936      0.00000000
[FR-NORM-COORD]
vibration 1
    -0.06598475     -0.00028751      0.00000022
     0.03452793     -0.00000114      0.00000008
    -0.06596208      0.00027306      0.00000001
    -0.04683111      0.00780057      0.00000024
     0.54759096     -0.27085552     -0.00000007
     0.30011752      0.16950458     -0.00000310
     0.03676838      0.00000072      0.00000003
    -0.04681550     -0.00781216     -0.00000009
     0.29996519     -0.16937789      0.00000006
     0.54780466      0.27104467     -0.00000289
vibration 2
    -0.06156193     -0.01788985      0.00000014
     0.00000061     -0.01758231      0.00000006
     0.06155403     -0.01787475      0.00000001
     0.01584135      0.00755599     -0.00000014
    -0.62856644      0.27906832      0.00000012
    -0.13776720     -0.05865059      0.00000136
    -0.00001745      0.00352517     -0.00000001
    -0.01576984      0.00754475      0.00000007
     0.13709241     -0.05829978     -0.00000015
     0.62871783      0.27923568     -0.00000303
vibration 3
     0.02848591      0.00481652     -0.00000010
    -0.01040963     -0.00001585     -0.00000003
     0.02858581     -0.00482684      0.00000001
    -0.05326720     -0.01182526      0.00000036
    -0.32323548      0.15041293      0.00000015
     0.55212521      0.25633028     -0.00000507
     0.01975736     -0.00001938      0.00000003
    -0.05310063      0.01175714      0.00000001
     0.55027056     -0.25539150     -0.00000007
    -0.32208287     -0.14992826      0.00000162
vibration 4
     0.01022886     -0.00147405     -0.00000014
    -0.00001094      0.00354633      0.00000000
    -0.01015786     -0.00149210      0.00000000
     0.05714852      0.02062098     -0.00000046
     0.13998032     -0.07016229     -0.00000000
    -0.62521437     -0.28123355      0.00000589
     0.00003852      0.01430004     -0.00000003
    -0.05734112      0.02064592      0.00000010
     0.62714164     -0.28202449     -0.00000039
    -0.14084287     -0.07058021      0.00000077
vibration 5
    -0.09655955      0.17896800      0.00000058
     0.22013470      0.00001565      0.00000023
    -0.09653700     -0.17898451     -0.00000032
    -0.11572668      0.18919655      0.00000053
    -0.41391926     -0.11955713      0.00000091
    -0.36938018      0.17405638     -0.00000044
     0.25641349      0.00001543      0.00000002
    -0.11570108     -0.18920785     -0.00000126
    -0.36937846     -0.17410618      0.00000128
    -0.41390189      0.11950633      0.00000019
vibration 6
    -0.21633298      0.10463907     -0.00000291
     0.47628102      0.00002727      0.00000072
    -0.21631339     -0.10465970      0.00000243
     0.13208311     -0.18607794     -0.00000392
    -0.30892815     -0.02674730      0.00000020
     0.29189994     -0.20281103      0.00000691
    -0.32943187     -0.00002145      0.00000059
     0.13206359      0.18609171      0.00000291
     0.29189077      0.20284968     -0.00000595
    -0.30893887      0.02670946     -0.00000146
vibration 7
     0.32913376     -0.21976652      0.00000190
    -0.00001256      0.19921591     -0.00000108
    -0.32910334     -0.21981350     -0.00000020
    -0.08678794      0.12363614     -0.00000011
    -0.45576243     -0.24655700     -0.00000015
    -0.10937916      0.14159983     -0.00000105
    -0.00000626     -0.01932624      0.00000081
     0.08677704      0.12364925     -0.00000142
     0.10937640      0.14161809      0.00000279
     0.45579430     -0.24649009      0.00000018
vibration 8
    -0.18248690     -0.18053713      0.00000617
     0.00000788     -0.26238316     -0.00000101
     0.18251447     -0.18053516     -0.00000251
    -0.10837840      0.32991460      0.00000320
     0.24871549     -0.18599170     -0.00000448
    -0.13815632      0.40405089     -0.00000616
    -0.00001248     -0.02501300      0.00000356
     0.10835557      0.32990083     -0.00000993
     0.13813669      0.40403588      0.00000870
    -0.24868843     -0.18599880      0.00000303
vibration 9
     0.00000323      0.00000071     -0.33758951
    -0.00001085     -0.00000586      0.00000475
     0.00000891     -0.00002665      0.33757445
     0.00002061      0.00002080     -0.43496877
     0.00000952     -0.00003270      0.26926622
     0.00003413      0.00002552      0.35259303
    -0.00001152      0.00001656     -0.00001342
    -0.00000936     -0.00000650      0.43499458
    -0.00001335     -0.00000553     -0.35260662
     0.00000196      0.00000275     -0.26926033
vibration 10
    -0.06136793     -0.25869501     -0.00001846
     0.16968200     -0.00002204      0.00000130
    -0.06140052      0.25860843      0.00001019
    -0.18643700     -0.26074711     -0.00000827
    -0.05670478      0.32566638      0.00001175
    -0.24389968     -0.31429447      0.00000645
     0.29845748      0.00008963     -0.00000919
    -0.18657167      0.26076234      0.00002588
    -0.24408290      0.31430387     -0.00000414
    -0.05666843     -0.32576537     -0.00001577
vibration 11
     0.00920346     -0.17041257      0.00002318
    -0.00002026     -0.06950232     -0.00000287
    -0.00914845     -0.17051411     -0.00000596
     0.36235723      0.02155065     -0.00000382
    -0.01150798     -0.20667066     -0.00000990
     0.48093991      0.00571280     -0.00000370
    -0.00007920      0.35376017      0.00002323
    -0.36230650      0.02142720     -0.00003757
    -0.48087454      0.00555385      0.00000224
     0.01156541     -0.20654535      0.00001630
vibration 12
    -0.00000016      0.00000961      0.18886938
     0.00000523      0.00001278     -0.03459077
     0.00000286      0.00002168      0.18889873
    -0.00003244     -0.00001574     -0.50822195
     0.00000152      0.00002569      0.08894246
    -0.00004185     -0.00001609     -0.15154809
     0.00000848     -0.00003235      0.59089330
     0.00001522      0.00000516     -0.50818885
     0.00002248      0.00000506     -0.15154920
     0.00000033      0.00001058      0.08890447
vibration 13
     0.29569081      0.27057467      0.00000231
     0.06470589      0.00000568     -0.00000063
     0.29573345     -0.27053005     -0.00000270
    -0.26498779     -0.20418089      0.00000488
     0.26200233     -0.26683376     -0.00000260
    -0.22505024     -0.16536778      0.00000411
    -0.12267711     -0.00001629     -0.00000424
    -0.26499256      0.20414622      0.00000079
    -0.22503939      0.16534838      0.00000046
     0.26195695      0.26688208      0.00000289
vibration 14
     0.06416033     -0.02349020      0.00000142
     0.00001073     -0.25795194     -0.00000038
    -0.06415316     -0.02351305      0.00000159
    -0.35319950     -0.16966768     -0.00000429
    -0.03819875      0.01535000      0.00000052
    -0.26319942     -0.21598890     -0.00000044
    -0.00004684      0.61788354      0.00000469
     0.35323201     -0.16964151     -0.00000344
     0.26322752     -0.21598982     -0.00000375
     0.03819995      0.01537261      0.00000004
vibration 15
     0.00000288      0.00000029     -0.41270856
    -0.00000103     -0.00000192      0.58725018
    -0.00000027     -0.00000230     -0.41271238
     0.00000105      0.00000176     -0.02437322
     0.00000034     -0.00000173     -0.34286057
     0.00000032      0.00000329     -0.11472183
    -0.00000078      0.00000102      0.22774488
    -0.00000158      0.00000095     -0.02438184
    -0.00000184      0.00000146     -0.11472477
     0.00000155      0.00000109     -0.34284816
vibration 16
    -0.33257951     -0.24021020     -0.00000062
    -0.00003319      0.55000152      0.00000156
     0.33260520     -0.24015825     -0.00000317
    -0.10703120     -0.11183315      0.00000331
     0.19913571     -0.31651558     -0.00000337
    -0.06187753     -0.08178570      0.00000665
    -0.00000382      0.11064337     -0.00000115
     0.10704487     -0.11181322     -0.00000017
     0.06188118     -0.08177927     -0.00000096
    -0.19909377     -0.31656064     -0.00000007
vibration 17
    -0.00000014     -0.00000041      0.06980431
     0.00000011     -0.00000032     -0.00000016
    -0.00000046      0.00000146     -0.06980386
    -0.00000181      0.00000001     -0.01496772
    -0.00000041      0.00000132     -0.14679022
     0.00000302      0.00000214      0.68801457
     0.00000120     -0.00000131      0.00000065
     0.00000057      0.00000029      0.01496472
     0.00000125      0.00000263     -0.68800083
    -0.00000014      0.00000046      0.14680002
vibration 18
     0.00000015      0.00000028      0.00702557
    -0.00000008     -0.00000005      0.02340323
    -0.00000021      0.00000078      0.00702483
    -0.00000085     -0.00000036     -0.04217373
    -0.00000060     -0.00000002     -0.17894605
     0.00000454      0.00000142      0.68207965
     0.00000027     -0.00000047     -0.03558601
     0.00000046      0.00000003     -0.04217087
    -0.00000052     -0.00000285      0.68208811
    -0.00000068      0.00000011     -0.17897399
vibration 19
    -0.00000025     -0.00000021     -0.05843582
     0.00000005     -0.00000012     -0.01143563
    -0.00000009     -0.00000017     -0.05839194
    -0.00000021      0.00000008     -0.01128672
     0.00000074      0.00000123      0.68030675
     0.00000139      0.00000048      0.18252101
     0.00000003      0.00000000      0.00668309
     0.00000010      0.00000014     -0.01130194
    -0.00000025     -0.00000042      0.18255158
     0.00000226      0.00000217      0.68065321
vibration 20
     0.00000008      0.00000018      0.08690811
    -0.00000010     -0.00000002     -0.00000290
     0.00000010     -0.00000005     -0.08694091
     0.00000020     -0.00000023     -0.02854217
     0.00000038      0.00000016      0.70037535
    -0.00000030      0.00000222      0.03702930
    -0.00000020     -0.00000003      0.00000212
     0.00000020      0.00000021      0.02853807
    -0.00000023     -0.00000111     -0.03695702
    -0.00000274     -0.00000171     -0.69999754
vibration 21
    -0.00241135     -0.00935179     -0.00000025
    -0.00976104     -0.00000973      0.00000002
    -0.00240218      0.00941724      0.00000035
     0.03606918     -0.07492463     -0.00000002
    -0.06102360     -0.12904342     -0.00000131
    -0.27103837      0.63329364     -0.00000018
    -0.00013452      0.00002258     -0.00000013
     0.03595093      0.07468785      0.00000021
    -0.26986370     -0.63087385     -0.00000250
    -0.06079603      0.12848519      0.00000189
vibration 22
    -0.00410792      0.02017557     -0.00000007
     0.00001323     -0.00548506      0.00000009
     0.00409253      0.02009134      0.00000025
     0.02673232     -0.06108291     -0.00000014
    -0.07693516     -0.17408443      0.00000031
    -0.27088588      0.61930939      0.00000083
     0.00000596      0.01171262     -0.00000013
    -0.02685006     -0.06135825     -0.00000035
     0.27177280      0.62164938      0.00000231
     0.07736672     -0.17497196      0.00000077
vibration 23
     0.03246764     -0.07519848      0.00000001
     0.01601879      0.00000404     -0.00000010
     0.03244742      0.07518156     -0.00000019
    -0.01252442      0.01611107      0.00000011
    -0.27369900     -0.63420232      0.00000098
     0.04915411     -0.11314064     -0.00000096
    -0.01784397      0.00000423      0.00000008
    -0.01254573     -0.01616514      0.00000009
     0.04936683      0.11367415      0.00000065
    -0.27388644      0.63439928     -0.00000054
vibration 24
     0.02438584     -0.06129439      0.00000017
    -0.00000402      0.01596929     -0.00000009
    -0.02439549     -0.06134020      0.00000015
     0.00990967     -0.01735587      0.00000001
     0.26684712      0.62255795     -0.00000123
    -0.07713975      0.17502326      0.00000022
     0.00000482      0.00409312     -0.00000005
    -0.00990727     -0.01736424     -0.00000006
     0.07714075      0.17510184      0.00000103
    -0.26677296      0.62215036     -0.00000133
[INT]
  408.234529
   50.350683
   87.206953
  127.317771
   11.590334
    0.188969
   24.356483
   19.404566
    0.000000
    0.018555
    6.222545
    0.295382
    0.234365
    1.715656
    0.319577
    2.076829
    0.000000
    0.742874
    2.906690
    0.000000
    2.556013
    5.099720
    1.199414
   27.547316

======= END OF MOLDEN-FORMATTED INPUT FILE =======


        *************************************************************
        *                                                           *
        *  Thank you very much for using Q-Chem.  Have a nice day.  *
        *                                                           *
        *************************************************************


