[Molden Format]
[Atoms] (Angs)
  C      1    6      1.12784069      0.69707922      0.00049239
  N      2    7      0.00036564      1.40935636      0.00122662
  C      3    6     -1.12756404      0.69756376      0.00064600
  C      4    6     -1.12790185     -0.69701778     -0.00044472
  H      5    1     -2.06813117      1.25759308      0.00111034
  H      6    1     -2.06873910     -1.25659395     -0.00099026
  N      7    7     -0.00031967     -1.40935668     -0.00129024
  C      8    6      1.12750069     -0.69762571     -0.00063746
  H      9    1      2.06815662     -1.25752471     -0.00110646
  H     10    1      2.06877217      1.25651641      0.00102379
[FREQ]
    348.38262202
    428.57300547
    603.23831078
    718.60159610
    782.90211634
    805.24020441
    947.86258601
    992.95034185
   1006.51101692
   1035.81537377
   1061.53512018
   1099.43699027
   1174.27485111
   1252.88718981
   1284.14114105
   1357.14665500
   1445.76997819
   1521.84890105
   1623.82905509
   1661.40052396
   3179.13630461
   3179.52343857
   3195.89535028
   3201.78081473
[FR-COORD]
  C      2.13131002      1.31728882      0.00093048
  N      0.00069096      2.66329754      0.00231798
  C     -2.13078722      1.31820446      0.00122076
  C     -2.13142558     -1.31717271     -0.00084039
  H     -3.90820150      2.37650649      0.00209824
  H     -3.90935032     -2.37461841     -0.00187133
  N     -0.00060409     -2.66329813     -0.00243821
  C      2.13066752     -1.31832153     -0.00120462
  H      3.90824960     -2.37637730     -0.00209090
  H      3.90941282      2.37447189      0.00193468
[FR-NORM-COORD]
vibration 1
     0.00001280     -0.00013423      0.16766236
    -0.00000127     -0.00000170     -0.00000226
    -0.00000783      0.00013032     -0.16767918
     0.00001471     -0.00013303      0.16768144
    -0.00001148      0.00037948     -0.47101752
     0.00001901     -0.00042720      0.47102681
    -0.00001074      0.00000559     -0.00000253
    -0.00000660      0.00013807     -0.16766049
    -0.00000796      0.00039422     -0.47106996
     0.00001141     -0.00041401      0.47107806
vibration 2
    -0.00001846      0.00019302     -0.20748528
     0.00003238     -0.00035535      0.40633599
    -0.00002010      0.00018069     -0.20743184
    -0.00004715      0.00019715     -0.20742553
    -0.00000131      0.00033616     -0.35284831
    -0.00002669      0.00030384     -0.35283419
     0.00003816     -0.00037961      0.40633686
     0.00000497      0.00017972     -0.20749222
     0.00001595      0.00032220     -0.35259446
    -0.00000677      0.00031249     -0.35257249
vibration 3
     0.23270160     -0.03497759     -0.00005248
    -0.00012598     -0.44360061     -0.00038741
    -0.23270920     -0.03482395     -0.00001931
    -0.23268626      0.03494274      0.00005012
    -0.03419636      0.30832824      0.00027182
    -0.03433614     -0.30830945     -0.00025021
     0.00009258      0.44360086      0.00038467
     0.23272455      0.03485857      0.00003317
     0.03424370     -0.30833759     -0.00030648
     0.03438744      0.30831822      0.00018606
vibration 4
    -0.24091184     -0.25574045     -0.00018015
    -0.14048010      0.00000741     -0.00000331
    -0.24077894      0.25588832      0.00023601
     0.24090855      0.25577223      0.00017473
    -0.30393346      0.15593943      0.00022672
     0.30400979      0.15580204      0.00017851
     0.14047966     -0.00006892      0.00000404
     0.24078287     -0.25585772     -0.00024500
     0.30392990     -0.15588681     -0.00017083
    -0.30400784     -0.15574280     -0.00007314
vibration 5
    -0.00003331      0.00014606     -0.19103815
     0.00000761     -0.00018642      0.21792483
    -0.00001035      0.00015946     -0.19102632
     0.00004782     -0.00014969      0.19102189
    -0.00002612      0.00034347     -0.43560443
     0.00004730     -0.00038278      0.43563893
    -0.00001322      0.00020727     -0.21792298
     0.00000227     -0.00017419      0.19103575
     0.00000250     -0.00038785      0.43562183
    -0.00002227      0.00035593     -0.43560085
vibration 6
     0.00001669      0.00005399     -0.05163078
     0.00000222     -0.00002759      0.01693431
    -0.00001189      0.00004971     -0.05164156
     0.00000502      0.00004839     -0.05164789
     0.00000510     -0.00038212      0.49724113
     0.00001512     -0.00048592      0.49724103
    -0.00000190     -0.00002797      0.01693784
    -0.00001120      0.00005830     -0.05163092
    -0.00001905     -0.00042066      0.49711508
     0.00001070     -0.00044440      0.49713070
vibration 7
    -0.00000034      0.00005668     -0.07612698
    -0.00001125      0.00000217     -0.00001753
     0.00000404     -0.00006157      0.07612578
     0.00000366     -0.00007088      0.07613454
    -0.00001602      0.00038547     -0.49406817
    -0.00001011      0.00048839     -0.49411152
    -0.00000543      0.00000929     -0.00001959
     0.00001474      0.00006434     -0.07611716
     0.00000387     -0.00043904      0.49422724
    -0.00000907     -0.00045804      0.49427557
vibration 8
    -0.00001713      0.00006318     -0.08709906
    -0.00000217      0.00000751      0.01070474
     0.00001094      0.00005875     -0.08721304
    -0.00000662     -0.00008226      0.08720539
     0.00001025     -0.00042773      0.49258508
    -0.00001528      0.00047506     -0.49253398
     0.00000452      0.00003374     -0.01070506
     0.00000995     -0.00008689      0.08710711
     0.00002051      0.00041913     -0.49203957
    -0.00001407     -0.00047747      0.49198828
vibration 9
    -0.00002739     -0.00012585      0.11486888
    -0.00000686      0.00005354     -0.00000774
     0.00003088      0.00006288     -0.11477157
    -0.00002135     -0.00012448      0.11477051
     0.00002078     -0.00045913      0.48633130
    -0.00002269      0.00043865     -0.48632006
    -0.00000539      0.00005620      0.00000827
     0.00003310      0.00006762     -0.11487083
     0.00000724     -0.00048769      0.48695776
    -0.00001663      0.00041009     -0.48694044
vibration 10
    -0.15179685     -0.16064316     -0.00019129
     0.00013198      0.33036225      0.00028106
     0.15164083     -0.16070172     -0.00006585
    -0.15172756     -0.16062883     -0.00025529
     0.02673638     -0.38195386     -0.00061405
    -0.02692329     -0.38195338      0.00025972
     0.00003189      0.33035519      0.00031394
     0.15172357     -0.16072506     -0.00010700
     0.02688562     -0.38192279     -0.00044993
    -0.02707041     -0.38189504     -0.00008735
vibration 11
    -0.20671039     -0.14427752     -0.00010033
    -0.00021189     -0.20721986     -0.00018134
     0.20679587     -0.14366279     -0.00012083
     0.20685661      0.14355850      0.00007244
     0.07897005     -0.39791398     -0.00033822
     0.07915337      0.39787088      0.00035890
    -0.00010902      0.20722754      0.00020684
    -0.20663547      0.14437377      0.00011411
    -0.07855813      0.39921170      0.00036716
    -0.07875741     -0.39917941     -0.00033012
vibration 12
     0.05418580      0.09448906      0.00007031
    -0.07053728     -0.00011940      0.00000603
     0.05442926     -0.09455205     -0.00007761
     0.05446305      0.09452623      0.00005587
    -0.15660409     -0.45949379     -0.00036506
    -0.15641001      0.45959512      0.00045346
    -0.07053755      0.00014833      0.00000793
     0.05415140     -0.09451418     -0.00007325
    -0.15677609     -0.45933260     -0.00040572
    -0.15657872      0.45943590      0.00041725
vibration 13
     0.12378040      0.00229499      0.00000050
     0.00007324      0.04580932      0.00004056
    -0.12385276      0.00231896      0.00000264
     0.12385769      0.00226760     -0.00000063
    -0.33793739     -0.34570500     -0.00026162
     0.33774080     -0.34580217     -0.00042125
    -0.00005720      0.04580943      0.00005132
    -0.12377278      0.00235161      0.00000300
    -0.33778345     -0.34563414     -0.00031048
     0.33760786     -0.34577215     -0.00034886
vibration 14
     0.06126683     -0.02707581     -0.00002289
     0.00037132      0.02216707      0.00002113
    -0.06167260     -0.02752367     -0.00002170
    -0.06166196      0.02755281      0.00002400
    -0.29211164     -0.40026364     -0.00031414
    -0.29193091      0.40041925      0.00040753
     0.00036044     -0.02216823     -0.00002594
     0.06128384      0.02704615      0.00002086
     0.29170660      0.39977976      0.00034744
     0.29150215     -0.39991315     -0.00037729
vibration 15
    -0.24601042      0.28573052      0.00025198
     0.43353270     -0.00062355     -0.00004091
    -0.24453285     -0.28577215     -0.00020203
    -0.24438535      0.28589352      0.00028600
    -0.08876909     -0.07370215     -0.00007985
    -0.08870638      0.07372164      0.00003640
     0.43352127      0.00040769     -0.00004509
    -0.24615084     -0.28560772     -0.00025175
    -0.09407565     -0.07917903      0.00009388
    -0.09405007      0.07925170      0.00014197
vibration 16
     0.01170663     -0.02975882     -0.00002609
     0.07197855     -0.00002511     -0.00000144
     0.01171994      0.02974201      0.00002445
    -0.01170471      0.02974520      0.00002701
    -0.26029182     -0.42252656     -0.00033693
     0.26008332     -0.42264539     -0.00041614
    -0.07198016      0.00000926      0.00000223
    -0.01171951     -0.02974764     -0.00002672
     0.26034930      0.42274596      0.00036899
    -0.26014647      0.42287547      0.00038918
vibration 17
    -0.02859856     -0.12725427     -0.00010454
     0.09712588      0.00004406     -0.00000289
    -0.02859750      0.12709324      0.00010093
    -0.02865090     -0.12708731     -0.00010118
    -0.33415280     -0.34103153     -0.00027473
    -0.33401417      0.34124008      0.00034911
     0.09712651     -0.00008477     -0.00000392
    -0.02854255      0.12726254      0.00010591
    -0.33448745     -0.34161994     -0.00030899
    -0.33433271      0.34180810      0.00031600
vibration 18
     0.12508801     -0.09060554     -0.00008556
     0.00034701      0.09306205      0.00008272
    -0.12563546     -0.09082238     -0.00007189
     0.12559442     -0.09086847     -0.00009454
     0.18384418      0.43383754      0.00034234
    -0.18360480      0.43389929      0.00040248
    -0.00031092      0.09306130      0.00009234
    -0.12512877     -0.09055348     -0.00007841
     0.18372478      0.43325570      0.00037519
    -0.18349168      0.43332804      0.00038164
vibration 19
     0.28107752     -0.15365196     -0.00015518
    -0.39580397      0.00052427      0.00002794
     0.28010162      0.15280995      0.00012712
    -0.28003187      0.15293902      0.00017253
     0.02488590     -0.26113194     -0.00022200
    -0.02502874     -0.26110617     -0.00016995
     0.39581102      0.00033353     -0.00003276
    -0.28115488     -0.15352593     -0.00014167
    -0.02413982      0.26367260      0.00023498
     0.02427533      0.26366096      0.00019058
vibration 20
     0.09006941     -0.29549056     -0.00025401
    -0.00015607      0.14311169      0.00012974
    -0.09004447     -0.29572934     -0.00023453
    -0.08990908      0.29577672      0.00026108
     0.28268864      0.25412176      0.00020973
     0.28256445     -0.25426217     -0.00026804
    -0.00021831     -0.14311447     -0.00014410
     0.09021241      0.29544767      0.00025022
    -0.28204665     -0.25394741     -0.00024630
    -0.28191339      0.25407311      0.00023306
vibration 21
    -0.04056605     -0.02476415     -0.00002285
    -0.00045890      0.00001771      0.00000031
    -0.03015079      0.01879497      0.00001574
     0.03017541      0.01879116      0.00001761
     0.36355983     -0.21888901     -0.00018409
    -0.36383607     -0.21881949     -0.00020637
     0.00045910      0.00001718     -0.00000033
     0.04052506     -0.02476355     -0.00002097
    -0.48182106      0.28972160      0.00024645
     0.48228948      0.28968762      0.00026904
vibration 22
    -0.03216548     -0.01831315     -0.00001693
     0.00006654      0.00013068     -0.00000009
     0.04205180     -0.02443258     -0.00002057
    -0.04209329     -0.02443406     -0.00002271
    -0.48225001      0.28931183      0.00024338
     0.48273774      0.28929363      0.00027348
    -0.00006574      0.00013072     -0.00000009
     0.03212886     -0.01830863     -0.00001554
    -0.36354114      0.21781582      0.00018531
     0.36397251      0.21783778      0.00020218
vibration 23
    -0.03650653     -0.02652491     -0.00002394
     0.00090164      0.00000378     -0.00000004
    -0.03579708      0.02606399      0.00002146
    -0.03578191     -0.02603083     -0.00002361
     0.42022820     -0.25854393     -0.00021655
     0.42003738      0.25815262      0.00024334
     0.00090155     -0.00000435     -0.00000002
    -0.03652690      0.02656211      0.00002226
     0.42840045     -0.26352127     -0.00022391
     0.42814669      0.26308272      0.00024353
vibration 24
     0.03742139      0.02618910      0.00002301
     0.00000785     -0.00048859     -0.00000026
    -0.03812151      0.02673579      0.00002213
    -0.03811496     -0.02670538     -0.00002363
     0.42772070     -0.26425674     -0.00022075
     0.42761458      0.26391021      0.00024929
     0.00000841      0.00048859      0.00000023
     0.03743152     -0.02622144     -0.00002218
    -0.41961727      0.25919918      0.00022002
    -0.41947028     -0.25882964     -0.00024034
[INT]
    0.000000
   19.504890
    0.000001
    0.000000
    0.000000
   25.610046
    0.000000
    0.000000
    0.000004
   37.147701
    0.000035
    7.481786
    7.989361
    0.000008
    2.824321
    0.000001
   36.534288
    0.953760
    0.000000
    0.000029
    0.098293
    4.962873
   57.919288
    0.005138
