[Molden Format]
[Atoms] (Angs)
  C      1    6      2.14229000      1.37344000      0.00001000
  N      2    7     -0.00018000      2.74722000     -0.00000000
  C      3    6     -2.14248000      1.37316000     -0.00000000
  C      4    6     -2.14231000     -1.37343000      0.00000000
  H      5    1     -3.99562000      2.24151000     -0.00000000
  H      6    1     -3.99533000     -2.24207000      0.00002000
  N      7    7      0.00019000     -2.74722000     -0.00000000
  C      8    6      2.14249000     -1.37316000     -0.00000000
  H      9    1      3.99561000     -2.24152000     -0.00000000
  H     10    1      3.99532000      2.24206000      0.00000000
[FREQ]
  -1033.22050097
  -1018.02097891
  -1011.24695332
  -1007.96468359
   -829.05083486
   -532.68977931
   -424.69909637
   -261.23913037
   -245.97687323
   -123.45217118
   -102.91522999
     95.23814135
    190.41772005
    206.20924095
    271.52360402
    309.76241718
    557.14968158
    693.87307142
    784.91421989
    801.73739344
    871.97853797
    876.19217195
    883.45873098
    898.57302287
[FR-COORD]
  C      4.04834138      2.59542545      0.00001890
  N     -0.00034015      5.19149341     -0.00000000
  C     -4.04870043      2.59489633     -0.00000000
  C     -4.04837917     -2.59540655      0.00000000
  H     -7.55062750      4.23584001     -0.00000000
  H     -7.55007948     -4.23689825      0.00003779
  N      0.00035905     -5.19149341     -0.00000000
  C      4.04871933     -2.59489633     -0.00000000
  H      7.55060860     -4.23585890     -0.00000000
  H      7.55006058      4.23687936      0.00000000
[FR-NORM-COORD]
vibration 1
    -0.06598475     -0.00028751      0.00000022
     0.03452793     -0.00000114      0.00000008
    -0.06596208      0.00027306      0.00000001
    -0.04683111      0.00780057      0.00000024
     0.54759096     -0.27085552     -0.00000007
     0.30011752      0.16950458     -0.00000310
     0.03676838      0.00000072      0.00000003
    -0.04681550     -0.00781216     -0.00000009
     0.29996519     -0.16937789      0.00000006
     0.54780466      0.27104467     -0.00000289
vibration 2
    -0.06156193     -0.01788985      0.00000014
     0.00000061     -0.01758231      0.00000006
     0.06155403     -0.01787475      0.00000001
     0.01584135      0.00755599     -0.00000014
    -0.62856644      0.27906832      0.00000012
    -0.13776720     -0.05865059      0.00000136
    -0.00001745      0.00352517     -0.00000001
    -0.01576984      0.00754475      0.00000007
     0.13709241     -0.05829978     -0.00000015
     0.62871783      0.27923568     -0.00000303
vibration 3
     0.02848591      0.00481652     -0.00000010
    -0.01040963     -0.00001585     -0.00000003
     0.02858581     -0.00482684      0.00000001
    -0.05326720     -0.01182526      0.00000036
    -0.32323548      0.15041293      0.00000015
     0.55212521      0.25633028     -0.00000507
     0.01975736     -0.00001938      0.00000003
    -0.05310063      0.01175714      0.00000001
     0.55027056     -0.25539150     -0.00000007
    -0.32208287     -0.14992826      0.00000162
vibration 4
     0.01022886     -0.00147405     -0.00000014
    -0.00001094      0.00354633      0.00000000
    -0.01015786     -0.00149210      0.00000000
     0.05714852      0.02062098     -0.00000046
     0.13998032     -0.07016229     -0.00000000
    -0.62521437     -0.28123355      0.00000589
     0.00003852      0.01430004     -0.00000003
    -0.05734112      0.02064592      0.00000010
     0.62714164     -0.28202449     -0.00000039
    -0.14084287     -0.07058021      0.00000077
vibration 5
    -0.09655955      0.17896800      0.00000058
     0.22013470      0.00001565      0.00000023
    -0.09653700     -0.17898451     -0.00000032
    -0.11572668      0.18919655      0.00000053
    -0.41391926     -0.11955713      0.00000091
    -0.36938018      0.17405638     -0.00000044
     0.25641349      0.00001543      0.00000002
    -0.11570108     -0.18920785     -0.00000126
    -0.36937846     -0.17410618      0.00000128
    -0.41390189      0.11950633      0.00000019
vibration 6
    -0.21633298      0.10463907     -0.00000291
     0.47628102      0.00002727      0.00000072
    -0.21631339     -0.10465970      0.00000243
     0.13208311     -0.18607794     -0.00000392
    -0.30892815     -0.02674730      0.00000020
     0.29189994     -0.20281103      0.00000691
    -0.32943187     -0.00002145      0.00000059
     0.13206359      0.18609171      0.00000291
     0.29189077      0.20284968     -0.00000595
    -0.30893887      0.02670946     -0.00000146
vibration 7
     0.32913376     -0.21976652      0.00000190
    -0.00001256      0.19921591     -0.00000108
    -0.32910334     -0.21981350     -0.00000020
    -0.08678794      0.12363614     -0.00000011
    -0.45576243     -0.24655700     -0.00000015
    -0.10937916      0.14159983     -0.00000105
    -0.00000626     -0.01932624      0.00000081
     0.08677704      0.12364925     -0.00000142
     0.10937640      0.14161809      0.00000279
     0.45579430     -0.24649009      0.00000018
vibration 8
    -0.18248690     -0.18053713      0.00000617
     0.00000788     -0.26238316     -0.00000101
     0.18251447     -0.18053516     -0.00000251
    -0.10837840      0.32991460      0.00000320
     0.24871549     -0.18599170     -0.00000448
    -0.13815632      0.40405089     -0.00000616
    -0.00001248     -0.02501300      0.00000356
     0.10835557      0.32990083     -0.00000993
     0.13813669      0.40403588      0.00000870
    -0.24868843     -0.18599880      0.00000303
vibration 9
     0.00000323      0.00000071     -0.33758951
    -0.00001085     -0.00000586      0.00000475
     0.00000891     -0.00002665      0.33757445
     0.00002061      0.00002080     -0.43496877
     0.00000952     -0.00003270      0.26926622
     0.00003413      0.00002552      0.35259303
    -0.00001152      0.00001656     -0.00001342
    -0.00000936     -0.00000650      0.43499458
    -0.00001335     -0.00000553     -0.35260662
     0.00000196      0.00000275     -0.26926033
vibration 10
    -0.06136793     -0.25869501     -0.00001846
     0.16968200     -0.00002204      0.00000130
    -0.06140052      0.25860843      0.00001019
    -0.18643700     -0.26074711     -0.00000827
    -0.05670478      0.32566638      0.00001175
    -0.24389968     -0.31429447      0.00000645
     0.29845748      0.00008963     -0.00000919
    -0.18657167      0.26076234      0.00002588
    -0.24408290      0.31430387     -0.00000414
    -0.05666843     -0.32576537     -0.00001577
vibration 11
     0.00920346     -0.17041257      0.00002318
    -0.00002026     -0.06950232     -0.00000287
    -0.00914845     -0.17051411     -0.00000596
     0.36235723      0.02155065     -0.00000382
    -0.01150798     -0.20667066     -0.00000990
     0.48093991      0.00571280     -0.00000370
    -0.00007920      0.35376017      0.00002323
    -0.36230650      0.02142720     -0.00003757
    -0.48087454      0.00555385      0.00000224
     0.01156541     -0.20654535      0.00001630
vibration 12
    -0.00000016      0.00000961      0.18886938
     0.00000523      0.00001278     -0.03459077
     0.00000286      0.00002168      0.18889873
    -0.00003244     -0.00001574     -0.50822195
     0.00000152      0.00002569      0.08894246
    -0.00004185     -0.00001609     -0.15154809
     0.00000848     -0.00003235      0.59089330
     0.00001522      0.00000516     -0.50818885
     0.00002248      0.00000506     -0.15154920
     0.00000033      0.00001058      0.08890447
vibration 13
     0.29569081      0.27057467      0.00000231
     0.06470589      0.00000568     -0.00000063
     0.29573345     -0.27053005     -0.00000270
    -0.26498779     -0.20418089      0.00000488
     0.26200233     -0.26683376     -0.00000260
    -0.22505024     -0.16536778      0.00000411
    -0.12267711     -0.00001629     -0.00000424
    -0.26499256      0.20414622      0.00000079
    -0.22503939      0.16534838      0.00000046
     0.26195695      0.26688208      0.00000289
vibration 14
     0.06416033     -0.02349020      0.00000142
     0.00001073     -0.25795194     -0.00000038
    -0.06415316     -0.02351305      0.00000159
    -0.35319950     -0.16966768     -0.00000429
    -0.03819875      0.01535000      0.00000052
    -0.26319942     -0.21598890     -0.00000044
    -0.00004684      0.61788354      0.00000469
     0.35323201     -0.16964151     -0.00000344
     0.26322752     -0.21598982     -0.00000375
     0.03819995      0.01537261      0.00000004
vibration 15
     0.00000288      0.00000029     -0.41270856
    -0.00000103     -0.00000192      0.58725018
    -0.00000027     -0.00000230     -0.41271238
     0.00000105      0.00000176     -0.02437322
     0.00000034     -0.00000173     -0.34286057
     0.00000032      0.00000329     -0.11472183
    -0.00000078      0.00000102      0.22774488
    -0.00000158      0.00000095     -0.02438184
    -0.00000184      0.00000146     -0.11472477
     0.00000155      0.00000109     -0.34284816
vibration 16
    -0.33257951     -0.24021020     -0.00000062
    -0.00003319      0.55000152      0.00000156
     0.33260520     -0.24015825     -0.00000317
    -0.10703120     -0.11183315      0.00000331
     0.19913571     -0.31651558     -0.00000337
    -0.06187753     -0.08178570      0.00000665
    -0.00000382      0.11064337     -0.00000115
     0.10704487     -0.11181322     -0.00000017
     0.06188118     -0.08177927     -0.00000096
    -0.19909377     -0.31656064     -0.00000007
vibration 17
    -0.00000014     -0.00000041      0.06980431
     0.00000011     -0.00000032     -0.00000016
    -0.00000046      0.00000146     -0.06980386
    -0.00000181      0.00000001     -0.01496772
    -0.00000041      0.00000132     -0.14679022
     0.00000302      0.00000214      0.68801457
     0.00000120     -0.00000131      0.00000065
     0.00000057      0.00000029      0.01496472
     0.00000125      0.00000263     -0.68800083
    -0.00000014      0.00000046      0.14680002
vibration 18
     0.00000015      0.00000028      0.00702557
    -0.00000008     -0.00000005      0.02340323
    -0.00000021      0.00000078      0.00702483
    -0.00000085     -0.00000036     -0.04217373
    -0.00000060     -0.00000002     -0.17894605
     0.00000454      0.00000142      0.68207965
     0.00000027     -0.00000047     -0.03558601
     0.00000046      0.00000003     -0.04217087
    -0.00000052     -0.00000285      0.68208811
    -0.00000068      0.00000011     -0.17897399
vibration 19
    -0.00000025     -0.00000021     -0.05843582
     0.00000005     -0.00000012     -0.01143563
    -0.00000009     -0.00000017     -0.05839194
    -0.00000021      0.00000008     -0.01128672
     0.00000074      0.00000123      0.68030675
     0.00000139      0.00000048      0.18252101
     0.00000003      0.00000000      0.00668309
     0.00000010      0.00000014     -0.01130194
    -0.00000025     -0.00000042      0.18255158
     0.00000226      0.00000217      0.68065321
vibration 20
     0.00000008      0.00000018      0.08690811
    -0.00000010     -0.00000002     -0.00000290
     0.00000010     -0.00000005     -0.08694091
     0.00000020     -0.00000023     -0.02854217
     0.00000038      0.00000016      0.70037535
    -0.00000030      0.00000222      0.03702930
    -0.00000020     -0.00000003      0.00000212
     0.00000020      0.00000021      0.02853807
    -0.00000023     -0.00000111     -0.03695702
    -0.00000274     -0.00000171     -0.69999754
vibration 21
    -0.00241135     -0.00935179     -0.00000025
    -0.00976104     -0.00000973      0.00000002
    -0.00240218      0.00941724      0.00000035
     0.03606918     -0.07492463     -0.00000002
    -0.06102360     -0.12904342     -0.00000131
    -0.27103837      0.63329364     -0.00000018
    -0.00013452      0.00002258     -0.00000013
     0.03595093      0.07468785      0.00000021
    -0.26986370     -0.63087385     -0.00000250
    -0.06079603      0.12848519      0.00000189
vibration 22
    -0.00410792      0.02017557     -0.00000007
     0.00001323     -0.00548506      0.00000009
     0.00409253      0.02009134      0.00000025
     0.02673232     -0.06108291     -0.00000014
    -0.07693516     -0.17408443      0.00000031
    -0.27088588      0.61930939      0.00000083
     0.00000596      0.01171262     -0.00000013
    -0.02685006     -0.06135825     -0.00000035
     0.27177280      0.62164938      0.00000231
     0.07736672     -0.17497196      0.00000077
vibration 23
     0.03246764     -0.07519848      0.00000001
     0.01601879      0.00000404     -0.00000010
     0.03244742      0.07518156     -0.00000019
    -0.01252442      0.01611107      0.00000011
    -0.27369900     -0.63420232      0.00000098
     0.04915411     -0.11314064     -0.00000096
    -0.01784397      0.00000423      0.00000008
    -0.01254573     -0.01616514      0.00000009
     0.04936683      0.11367415      0.00000065
    -0.27388644      0.63439928     -0.00000054
vibration 24
     0.02438584     -0.06129439      0.00000017
    -0.00000402      0.01596929     -0.00000009
    -0.02439549     -0.06134020      0.00000015
     0.00990967     -0.01735587      0.00000001
     0.26684712      0.62255795     -0.00000123
    -0.07713975      0.17502326      0.00000022
     0.00000482      0.00409312     -0.00000005
    -0.00990727     -0.01736424     -0.00000006
     0.07714075      0.17510184      0.00000103
    -0.26677296      0.62215036     -0.00000133
[INT]
  408.234529
   50.350683
   87.206953
  127.317771
   11.590334
    0.188969
   24.356483
   19.404566
    0.000000
    0.018555
    6.222545
    0.295382
    0.234365
    1.715656
    0.319577
    2.076829
    0.000000
    0.742874
    2.906690
    0.000000
    2.556013
    5.099720
    1.199414
   27.547316
